 Gaussian 09, Revision D.01,
 Gaussian 09:  ES64L-G09RevD.01 24-Apr-2013

 ----------------------------------------------------
 #p ULSDA/gen pseudo=read Scf=(conver=6,dsymm,nosymm)
 ----------------------------------------------------

 -------------
 Ni4-Ni-Ni-Ni4
 -------------
 Symbolic Z-matrix:
 Charge =  0 Multiplicity = 7

                         Standard orientation:
 ---------------------------------------------------------------------
 Center     Atomic      Atomic             Coordinates (Angstroms)
 Number     Number       Type             X           Y           Z
 ---------------------------------------------------------------------
      1         28           0        0.000000    1.765000    3.065000
      2         28           0       -1.765000    0.000000    3.065000
      3         28           0        0.000000   -1.765000    3.065000
      4         28           0        1.765000    0.000000    3.065000
      5         28           0        0.000000    0.000000    1.300000
      6         28           0        0.000000    0.000000   -1.300000
      7         28           0        1.765000    0.000000   -3.065000
      8         28           0        0.000000   -1.765000   -3.065000
      9         28           0       -1.765000    0.000000   -3.065000
     10         28           0        0.000000    1.765000   -3.065000
 ---------------------------------------------------------------------

 SCF Done:  E(US-VWN) =  -402.097563976     A.U. after    2 cycles

 Unable to determine electronic state:  partially filled degenerate orbitals.
 Alpha  occ. eigenvalues --   -0.49506  -0.48736  -0.48736  -0.48390  -0.48104
 Alpha  occ. eigenvalues --   -0.48104  -0.47852  -0.47816  -0.47105  -0.46969
 Alpha  occ. eigenvalues --   -0.46465  -0.46452  -0.46442  -0.46391  -0.46365
 Alpha  occ. eigenvalues --   -0.46365  -0.46346  -0.46346  -0.46230  -0.46049
 Alpha  occ. eigenvalues --   -0.45375  -0.45062  -0.45062  -0.45039  -0.45039
 Alpha  occ. eigenvalues --   -0.44949  -0.44878  -0.44705  -0.44705  -0.44594
 Alpha  occ. eigenvalues --   -0.44594  -0.44564  -0.44078  -0.44078  -0.44063
 Alpha  occ. eigenvalues --   -0.44063  -0.44043  -0.44042  -0.43904  -0.43904
 Alpha  occ. eigenvalues --   -0.43671  -0.43671  -0.43649  -0.43643  -0.43417
 Alpha  occ. eigenvalues --   -0.43417  -0.43382  -0.43352  -0.42939  -0.42939
 Alpha  occ. eigenvalues --   -0.34597  -0.34091  -0.23376
 Alpha virt. eigenvalues --   -0.23376  -0.23240  -0.22923  -0.22923  -0.06853
 Alpha virt. eigenvalues --   -0.06330  -0.05865
  Beta  occ. eigenvalues --   -0.49506  -0.48736  -0.48736  -0.48390  -0.48104
  Beta  occ. eigenvalues --   -0.48104  -0.47852  -0.47816  -0.47105  -0.46969
  Beta  occ. eigenvalues --   -0.46465  -0.46452  -0.46442  -0.46391  -0.46365
  Beta  occ. eigenvalues --   -0.46365  -0.46346  -0.46346  -0.46230  -0.46049
  Beta  occ. eigenvalues --   -0.45375  -0.45062  -0.45062  -0.45039  -0.45039
  Beta  occ. eigenvalues --   -0.44949  -0.44878  -0.44705  -0.44705  -0.44594
  Beta  occ. eigenvalues --   -0.44594  -0.44564  -0.44078  -0.44078  -0.44063
  Beta  occ. eigenvalues --   -0.44063  -0.44043  -0.44042  -0.43904  -0.43904
  Beta  occ. eigenvalues --   -0.43671  -0.43671  -0.43649  -0.43643  -0.43417
  Beta  occ. eigenvalues --   -0.43417  -0.43382
  Beta virt. eigenvalues --   -0.43352  -0.42939  -0.42939  -0.34597  -0.34091
  Beta virt. eigenvalues --   -0.23376  -0.23376  -0.23240  -0.22923  -0.22923
  Beta virt. eigenvalues --   -0.06853  -0.06330  -0.05865

 Mulliken charges and spin densities:
               1          2
     1  Ni   0.023426   1.167253
     2  Ni   0.023426   1.167253
     3  Ni   0.023426   1.167253
     4  Ni   0.023426   1.167253
     5  Ni  -0.093676   1.180335
     6  Ni  -0.093676   1.180335
     7  Ni   0.023426   1.167253
     8  Ni   0.023426   1.167253
     9  Ni   0.023426   1.167253
    10  Ni   0.023426   1.167253
 Sum of Mulliken charges =   0.00006  11.69870

 Dipole moment (field-independent basis, Debye):
    X=              0.0000    Y=              0.0000    Z=              0.0000  Tot=              0.0000
 Quadrupole moment (field-independent basis, Debye-Ang):
   XX=           -116.4103   YY=           -116.4103   ZZ=           -106.6813
   XY=              0.0000   XZ=              0.0000   YZ=              0.0000

 Normal termination of Gaussian 09 at Fri Sep  7 12:45:50 2018.
