 Gaussian 09, Revision D.01,
 Gaussian 09:  ES64L-G09RevD.01 24-Apr-2013

 -----------------------------------------------------------------
 #p LSDA/gen pseudo=read scf=(maxcycle=300,conver=5,nodamp) nosymm
 -----------------------------------------------------------------

 -----------------------
 Ni9-Ni4-Ni-Ni-Ni4-Ni9.F
 -----------------------
 Symbolic Z-matrix:
 Charge =  0 Multiplicity =31

                          Input orientation:
 ---------------------------------------------------------------------
 Center     Atomic      Atomic             Coordinates (Angstroms)
 Number     Number       Type             X           Y           Z
 ---------------------------------------------------------------------
      1         28           0        0.000000   -3.500000   -4.750000
      2         28           0       -3.500000    0.000000   -4.750000
      3         28           0        3.500000    0.000000   -4.750000
      4         28           0        0.000000    3.500000   -4.750000
      5         28           0       -1.750000   -1.750000   -4.750000
      6         28           0        1.750000   -1.750000   -4.750000
      7         28           0        0.000000    0.000000   -4.750000
      8         28           0       -1.750000    1.750000   -4.750000
      9         28           0        1.750000    1.750000   -4.750000
     10         28           0        0.000000   -1.750000   -3.000000
     11         28           0       -1.750000    0.000000   -3.000000
     12         28           0        1.750000    0.000000   -3.000000
     13         28           0        0.000000    1.750000   -3.000000
     14         28           0        0.000000    0.000000   -1.250000
     15         28           0        0.000000    0.000000    1.250000
     16         28           0        0.000000   -1.750000    3.000000
     17         28           0       -1.750000    0.000000    3.000000
     18         28           0        1.750000    0.000000    3.000000
     19         28           0        0.000000    1.750000    3.000000
     20         28           0       -1.750000   -1.750000    4.750000
     21         28           0        1.750000   -1.750000    4.750000
     22         28           0        0.000000    0.000000    4.750000
     23         28           0       -1.750000    1.750000    4.750000
     24         28           0        1.750000    1.750000    4.750000
     25         28           0        0.000000   -3.500000    4.750000
     26         28           0       -3.500000    0.000000    4.750000
     27         28           0        3.500000    0.000000    4.750000
     28         28           0        0.000000    3.500000    4.750000
 ---------------------------------------------------------------------

 SCF Done:  E(US-VWN) =  -1126.76883558     A.U. after   55 cycles

 Alpha  occ. eigenvalues --   -0.54183  -0.54012  -0.53707  -0.53707  -0.53482
 Alpha  occ. eigenvalues --   -0.53482  -0.53479  -0.53479  -0.53060  -0.53058
 Alpha  occ. eigenvalues --   -0.52955  -0.52938  -0.51818  -0.51818  -0.51809
 Alpha  occ. eigenvalues --   -0.51754  -0.51708  -0.51704  -0.51704  -0.51698
 Alpha  occ. eigenvalues --   -0.51135  -0.51135  -0.51128  -0.51128  -0.50512
 Alpha  occ. eigenvalues --   -0.50512  -0.50347  -0.50332  -0.50142  -0.50142
 Alpha  occ. eigenvalues --   -0.50020  -0.50000  -0.50000  -0.49924  -0.49924
 Alpha  occ. eigenvalues --   -0.49819  -0.49819  -0.49813  -0.49813  -0.49780
 Alpha  occ. eigenvalues --   -0.48975  -0.48972  -0.48725  -0.48725  -0.48719
 Alpha  occ. eigenvalues --   -0.48685  -0.48685  -0.48482  -0.48239  -0.48220
 Alpha  occ. eigenvalues --   -0.48165  -0.48044  -0.48044  -0.48043  -0.48043
 Alpha  occ. eigenvalues --   -0.48041  -0.47711  -0.47679  -0.47521  -0.47521
 Alpha  occ. eigenvalues --   -0.47352  -0.47326  -0.47320  -0.47284  -0.47284
 Alpha  occ. eigenvalues --   -0.47277  -0.47277  -0.47271  -0.47271  -0.47146
 Alpha  occ. eigenvalues --   -0.47146  -0.46601  -0.46586  -0.46575  -0.46391
 Alpha  occ. eigenvalues --   -0.46261  -0.46261  -0.46246  -0.46246  -0.46177
 Alpha  occ. eigenvalues --   -0.46177  -0.46151  -0.46150  -0.46108  -0.46108
 Alpha  occ. eigenvalues --   -0.45955  -0.45955  -0.45921  -0.45913  -0.45801
 Alpha  occ. eigenvalues --   -0.45801  -0.45767  -0.45767  -0.45747  -0.45715
 Alpha  occ. eigenvalues --   -0.45637  -0.45631  -0.45631  -0.45574  -0.45548
 Alpha  occ. eigenvalues --   -0.45371  -0.45349  -0.45167  -0.45167  -0.45131
 Alpha  occ. eigenvalues --   -0.45131  -0.45094  -0.45094  -0.45005  -0.44966
 Alpha  occ. eigenvalues --   -0.44881  -0.44881  -0.44875  -0.44874  -0.44870
 Alpha  occ. eigenvalues --   -0.44870  -0.44869  -0.44866  -0.44637  -0.44637
 Alpha  occ. eigenvalues --   -0.44625  -0.44625  -0.44352  -0.44352  -0.44327
 Alpha  occ. eigenvalues --   -0.44307  -0.44307  -0.44288  -0.44285  -0.44285
 Alpha  occ. eigenvalues --   -0.44254  -0.44253  -0.44202  -0.44195  -0.43944
 Alpha  occ. eigenvalues --   -0.43944  -0.43889  -0.43889  -0.43500  -0.43500
 Alpha  occ. eigenvalues --   -0.41680  -0.41623  -0.35997  -0.35997  -0.35968
 Alpha  occ. eigenvalues --   -0.35968  -0.34060  -0.33109  -0.29885  -0.29882
 Alpha  occ. eigenvalues --   -0.26396  -0.26196  -0.26187  -0.25232  -0.23375
 Alpha virt. eigenvalues --   -0.23375  -0.22536  -0.22519  -0.22519  -0.18563
 Alpha virt. eigenvalues --   -0.18563  -0.18233  -0.18233  -0.17728  -0.14871
 Alpha virt. eigenvalues --   -0.14871  -0.14779  -0.14779  -0.13216  -0.10782

  Beta  occ. eigenvalues --   -0.54183  -0.54012  -0.53707  -0.53707  -0.53482
  Beta  occ. eigenvalues --   -0.53482  -0.53479  -0.53479  -0.53060  -0.53058
  Beta  occ. eigenvalues --   -0.52955  -0.52938  -0.51818  -0.51818  -0.51809
  Beta  occ. eigenvalues --   -0.51754  -0.51708  -0.51704  -0.51704  -0.51698
  Beta  occ. eigenvalues --   -0.51135  -0.51135  -0.51128  -0.51128  -0.50512
  Beta  occ. eigenvalues --   -0.50512  -0.50347  -0.50332  -0.50142  -0.50142
  Beta  occ. eigenvalues --   -0.50020  -0.50000  -0.50000  -0.49924  -0.49924
  Beta  occ. eigenvalues --   -0.49819  -0.49819  -0.49813  -0.49813  -0.49780
  Beta  occ. eigenvalues --   -0.48975  -0.48972  -0.48725  -0.48725  -0.48719
  Beta  occ. eigenvalues --   -0.48685  -0.48685  -0.48482  -0.48239  -0.48220
  Beta  occ. eigenvalues --   -0.48165  -0.48044  -0.48044  -0.48043  -0.48043
  Beta  occ. eigenvalues --   -0.48041  -0.47711  -0.47679  -0.47521  -0.47521
  Beta  occ. eigenvalues --   -0.47352  -0.47326  -0.47320  -0.47284  -0.47284
  Beta  occ. eigenvalues --   -0.47277  -0.47277  -0.47271  -0.47271  -0.47146
  Beta  occ. eigenvalues --   -0.47146  -0.46601  -0.46586  -0.46575  -0.46391
  Beta  occ. eigenvalues --   -0.46261  -0.46261  -0.46246  -0.46246  -0.46177
  Beta  occ. eigenvalues --   -0.46177  -0.46151  -0.46150  -0.46108  -0.46108
  Beta  occ. eigenvalues --   -0.45955  -0.45955  -0.45921  -0.45913  -0.45801
  Beta  occ. eigenvalues --   -0.45801  -0.45767  -0.45767  -0.45747  -0.45715
  Beta  occ. eigenvalues --   -0.45637  -0.45631  -0.45631  -0.45574  -0.45548
  Beta  occ. eigenvalues --   -0.45371  -0.45349  -0.45167  -0.45167  -0.45131
  Beta  occ. eigenvalues --   -0.45131  -0.45094  -0.45094  -0.45005  -0.44966
  Beta  occ. eigenvalues --   -0.44881  -0.44881  -0.44875  -0.44874  -0.44870
  Beta  occ. eigenvalues --   -0.44870  -0.44869  -0.44866  -0.44637  -0.44637
  Beta  occ. eigenvalues --   -0.44625  -0.44625  -0.44352  -0.44352  -0.44327
  Beta virt. eigenvalues --   -0.44307  -0.44307  -0.44288  -0.44285  -0.44285
  Beta virt. eigenvalues --   -0.44254  -0.44253  -0.44202  -0.44195  -0.43944
  Beta virt. eigenvalues --   -0.43944  -0.43889  -0.43889  -0.43500  -0.43500

 Mulliken charges and spin densities:
               1          2
     1  Ni  -0.199409   1.084079
     2  Ni  -0.199680   1.082476
     3  Ni  -0.199680   1.082476
     4  Ni  -0.199409   1.084079
     5  Ni  -0.108178   0.922795
     6  Ni  -0.107535   0.930727
     7  Ni  -0.001244   0.774960
     8  Ni  -0.107535   0.930727
     9  Ni  -0.108178   0.922795
    10  Ni   0.334521   0.766427
    11  Ni   0.334430   0.765087
    12  Ni   0.334430   0.765087
    13  Ni   0.334521   0.766427
    14  Ni  -0.101190   0.856818
    15  Ni  -0.101474   0.858005
    16  Ni   0.334030   0.766787
    17  Ni   0.333931   0.765426
    18  Ni   0.333931   0.765426
    19  Ni   0.334030   0.766787
    20  Ni  -0.108625   0.921643
    21  Ni  -0.107988   0.929905
    22  Ni  -0.001625   0.773511
    23  Ni  -0.107988   0.929905
    24  Ni  -0.108625   0.921643
    25  Ni  -0.199755   1.083567
    26  Ni  -0.200038   1.081835
    27  Ni  -0.200038   1.081835
    28  Ni  -0.199755   1.083567
 Sum of Mulliken charges =   0.00588  25.46480

 Dipole moment (field-independent basis, Debye):
    X=              0.0000    Y=              0.0000    Z=             -0.1113  Tot=              0.1113
 Quadrupole moment (field-independent basis, Debye-Ang):
   XX=           -292.1109   YY=           -292.0475   ZZ=           -242.7238
   XY=             -0.0528   XZ=              0.0000   YZ=              0.0000

 Normal termination of Gaussian 09 at Sat Jul  9 14:47:59 2022.
