 Gaussian 09, Revision D.01,
 Gaussian 09:  AS64L-G09RevD.01 24-Apr-2013

 ---------------------------------------------------
 #p lsda/gen pseudo=read Scf=(conver=5,nodamp,dsymm)
 ---------------------------------------------------

 ---------
 Ag8-chain
 ---------
 Symbolic Z-matrix:
 Charge =  0 Multiplicity = 1

                         Standard orientation:
 ---------------------------------------------------------------------
 Center     Atomic      Atomic             Coordinates (Angstroms)
 Number     Number       Type             X           Y           Z
 ---------------------------------------------------------------------
      1         47           0        0.000000    0.000000   12.750000
      2         47           0        0.000000    0.000000    9.750000
      3         47           0        0.000000    0.000000    3.750000
      4         47           0        0.000000    0.000000    0.750000
      5         47           0        0.000000    0.000000   -2.250000
      6         47           0        0.000000    0.000000   -5.250000
      7         47           0        0.000000    0.000000   -8.250000
      8         47           0        0.000000    0.000000  -11.250000
 ---------------------------------------------------------------------

 SCF Done:  E(RS-VWN) =  -311.476410239     A.U. after   10 cycles

 The electronic state is 1-SG.
 Alpha  occ. eigenvalues --   -0.46591  -0.45772  -0.45125  -0.45125  -0.44672
 Alpha  occ. eigenvalues --   -0.44672  -0.44655  -0.44536  -0.44039  -0.44039
 Alpha  occ. eigenvalues --   -0.43886  -0.43886  -0.43846  -0.43846  -0.43796
 Alpha  occ. eigenvalues --   -0.43796  -0.43680  -0.43680  -0.43581  -0.43581
 Alpha  occ. eigenvalues --   -0.43383  -0.43383  -0.43306  -0.43134  -0.43134
 Alpha  occ. eigenvalues --   -0.43031  -0.43031  -0.43026  -0.43026  -0.42941
 Alpha  occ. eigenvalues --   -0.42941  -0.42855  -0.42855  -0.42745  -0.42745
 Alpha  occ. eigenvalues --   -0.42593  -0.42593  -0.42393  -0.42119  -0.41997
 Alpha  occ. eigenvalues --   -0.24498  -0.24333  -0.22453  -0.22245
 Alpha virt. eigenvalues --   -0.19615  -0.16099  -0.15527  -0.10861  -0.09045
 Alpha virt. eigenvalues --   -0.09045  -0.08027  -0.08027  -0.07297  -0.07297
 Alpha virt. eigenvalues --   -0.06426  -0.06382  -0.06382  -0.04208  -0.04208

 Mulliken charges:
               1
     1  Ag   0.047453
     2  Ag   0.019707
     3  Ag  -0.079298
     4  Ag  -0.091191
     5  Ag   0.091456
     6  Ag   0.083250
     7  Ag  -0.036236
     8  Ag   0.055671
 Sum of Mulliken charges =   0.09081

 Dipole moment (field-independent basis, Debye):
    X=              0.0000    Y=              0.0000    Z=              6.2665  Tot=              6.2665
 Quadrupole moment (field-independent basis, Debye-Ang):
   XX=           -132.9313   YY=           -132.9313   ZZ=            -70.5015
   XY=              0.0000   XZ=              0.0000   YZ=              0.0000

 Normal termination of Gaussian 09 at Fri Jul  8 12:52:34 2022.
