 Gaussian 09, Revision D.01,
 Gaussian 09:  ES64L-G09RevD.01 24-Apr-2013

 ---------------------------------------------------
 #p lsda/gen pseudo=read Scf=(conver=5,nodamp,dsymm)
 ---------------------------------------------------

 ---------------------
 Ag9-Ag4-Ag-Ag-Ag4-Ag9
 ---------------------
 Symbolic Z-matrix:
 Charge =  0 Multiplicity = 1

                         Standard orientation:
 ---------------------------------------------------------------------
 Center     Atomic      Atomic             Coordinates (Angstroms)
 Number     Number       Type             X           Y           Z
 ---------------------------------------------------------------------
      1         47           0        0.000000    4.000000    5.500000
      2         47           0       -4.000000    0.000000    5.500000
      3         47           0        0.000000    0.000000    5.500000
      4         47           0       -2.000000    2.000000    5.500000
      5         47           0        2.000000    2.000000    5.500000
      6         47           0       -2.000000   -2.000000    5.500000
      7         47           0        4.000000    0.000000    5.500000
      8         47           0        2.000000   -2.000000    5.500000
      9         47           0        0.000000   -4.000000    5.500000
     10         47           0        0.000000    2.000000    3.500000
     11         47           0       -2.000000    0.000000    3.500000
     12         47           0        2.000000    0.000000    3.500000
     13         47           0        0.000000   -2.000000    3.500000
     14         47           0        0.000000    0.000000    1.500000
     15         47           0        0.000000    0.000000   -1.500000
     16         47           0        0.000000    2.000000   -3.500000
     17         47           0       -2.000000    0.000000   -3.500000
     18         47           0        2.000000    0.000000   -3.500000
     19         47           0        0.000000   -2.000000   -3.500000
     20         47           0        0.000000    4.000000   -5.500000
     21         47           0       -2.000000    2.000000   -5.500000
     22         47           0       -4.000000    0.000000   -5.500000
     23         47           0        2.000000    2.000000   -5.500000
     24         47           0       -2.000000   -2.000000   -5.500000
     25         47           0        2.000000   -2.000000   -5.500000
     26         47           0        0.000000    0.000000   -5.500000
     27         47           0        4.000000    0.000000   -5.500000
     28         47           0        0.000000   -4.000000   -5.500000
 ---------------------------------------------------------------------

 SCF Done:  E(RS-VWN) =  -1089.83570831     A.U. after   12 cycles

 The electronic state is 1-A1G.
 Alpha  occ. eigenvalues --   -0.46482  -0.46173  -0.46173  -0.46125  -0.46036
 Alpha  occ. eigenvalues --   -0.46036  -0.46007  -0.46006  -0.45498  -0.45493
 Alpha  occ. eigenvalues --   -0.45492  -0.45487  -0.45181  -0.45181  -0.45169
 Alpha  occ. eigenvalues --   -0.45169  -0.45104  -0.45098  -0.44521  -0.44515
 Alpha  occ. eigenvalues --   -0.44430  -0.44420  -0.44335  -0.44334  -0.44256
 Alpha  occ. eigenvalues --   -0.44256  -0.44197  -0.44197  -0.44170  -0.44170
 Alpha  occ. eigenvalues --   -0.44045  -0.44045  -0.44013  -0.44013  -0.43727
 Alpha  occ. eigenvalues --   -0.43712  -0.43712  -0.43711  -0.43711  -0.43664
 Alpha  occ. eigenvalues --   -0.43283  -0.43283  -0.43087  -0.43087  -0.43011
 Alpha  occ. eigenvalues --   -0.43010  -0.43010  -0.43005  -0.42965  -0.42965
 Alpha  occ. eigenvalues --   -0.42953  -0.42953  -0.42891  -0.42882  -0.42882
 Alpha  occ. eigenvalues --   -0.42840  -0.42840  -0.42738  -0.42718  -0.42641
 Alpha  occ. eigenvalues --   -0.42620  -0.42613  -0.42523  -0.42432  -0.42389
 Alpha  occ. eigenvalues --   -0.42342  -0.42342  -0.42227  -0.42227  -0.42169
 Alpha  occ. eigenvalues --   -0.42167  -0.42146  -0.42145  -0.42110  -0.42110
 Alpha  occ. eigenvalues --   -0.42019  -0.42019  -0.42008  -0.42008  -0.41444
 Alpha  occ. eigenvalues --   -0.41431  -0.41378  -0.41378  -0.41305  -0.41027
 Alpha  occ. eigenvalues --   -0.40792  -0.40456  -0.40456  -0.40307  -0.40307
 Alpha  occ. eigenvalues --   -0.40128  -0.40128  -0.40081  -0.40059  -0.40059
 Alpha  occ. eigenvalues --   -0.39942  -0.39911  -0.39907  -0.39907  -0.39877
 Alpha  occ. eigenvalues --   -0.39838  -0.39838  -0.39834  -0.39834  -0.39705
 Alpha  occ. eigenvalues --   -0.39651  -0.39528  -0.39528  -0.39508  -0.39492
 Alpha  occ. eigenvalues --   -0.39492  -0.39484  -0.39479  -0.39479  -0.39471
 Alpha  occ. eigenvalues --   -0.39470  -0.39465  -0.39465  -0.39285  -0.39285
 Alpha  occ. eigenvalues --   -0.39285  -0.39285  -0.38988  -0.38988  -0.38954
 Alpha  occ. eigenvalues --   -0.38952  -0.38865  -0.38865  -0.38666  -0.38666
 Alpha  occ. eigenvalues --   -0.37589  -0.37589  -0.37550  -0.37547  -0.37528
 Alpha  occ. eigenvalues --   -0.37528  -0.37514  -0.37514  -0.36650  -0.36650
 Alpha  occ. eigenvalues --   -0.29713  -0.26398  -0.24770  -0.24770  -0.24732
 Alpha  occ. eigenvalues --   -0.24732  -0.22968  -0.21691  -0.20098  -0.20091
 Alpha  occ. eigenvalues --   -0.15821  -0.15592  -0.15586  -0.15140
 Alpha virt. eigenvalues --   -0.14353  -0.14353  -0.13927  -0.13927  -0.12979
 Alpha virt. eigenvalues --   -0.11308  -0.11308  -0.11137  -0.11137  -0.09187
 Alpha virt. eigenvalues --   -0.07630  -0.07438  -0.07298  -0.07298  -0.07048

 Mulliken charges:
               1
     1  Ag  -0.227686
     2  Ag  -0.227686
     3  Ag   0.116583
     4  Ag  -0.151405
     5  Ag  -0.151405
     6  Ag  -0.151405
     7  Ag  -0.227686
     8  Ag  -0.151405
     9  Ag  -0.227686
    10  Ag   0.166518
    11  Ag   0.166518
    12  Ag   0.166518
    13  Ag   0.166518
    14  Ag   0.733709
    15  Ag   0.733709
    16  Ag   0.166518
    17  Ag   0.166518
    18  Ag   0.166518
    19  Ag   0.166518
    20  Ag  -0.227686
    21  Ag  -0.151405
    22  Ag  -0.227686
    23  Ag  -0.151405
    24  Ag  -0.151405
    25  Ag  -0.151405
    26  Ag   0.116583
    27  Ag  -0.227686
    28  Ag  -0.227686
 Sum of Mulliken charges =   0.00000

 Dipole moment (field-independent basis, Debye):
    X=              0.0000    Y=              0.0000    Z=              0.0000  Tot=              0.0000
 Quadrupole moment (field-independent basis, Debye-Ang):
   XX=           -531.6883   YY=           -531.6883   ZZ=           -742.3621
   XY=              0.0000   XZ=              0.0000   YZ=              0.0000

 Normal termination of Gaussian 09 at Sat Jul  9 12:53:21 2022.
