 Gaussian 09, Revision D.01,
 Gaussian 09:  ES64L-G09RevD.01 24-Apr-2013

 -----------------------------------------------------------
 #p lsda/gen pseudo=read Scf=(conver=5,nodamp) symmetry=none
 -----------------------------------------------------------

 ---------------------
 Ag9-Ag4-Ag-Ag-Ag4-Ag9
 ---------------------
 Symbolic Z-matrix:
 Charge =  0 Multiplicity = 1

                          Input orientation:
 ---------------------------------------------------------------------
 Center     Atomic      Atomic             Coordinates (Angstroms)
 Number     Number       Type             X           Y           Z
 ---------------------------------------------------------------------
      1         47           0       -8.000042    0.000000   -4.000021
      2         47           0       -8.000042    4.000021    0.000000
      3         47           0       -8.000042    0.000000    0.000000
      4         47           0       -8.000042    2.000011   -2.000011
      5         47           0       -8.000042   -2.000011   -2.000011
      6         47           0       -8.000042    2.000011    2.000011
      7         47           0       -8.000042   -4.000021    0.000000
      8         47           0       -8.000042   -2.000011    2.000011
      9         47           0       -8.000042    0.000000    4.000021
     10         47           0       -6.000032    0.000000   -2.000011
     11         47           0       -6.000032    2.000011    0.000000
     12         47           0       -6.000032   -2.000011    0.000000
     13         47           0       -6.000032    0.000000    2.000011
     14         47           0       -4.000021    0.000000    0.000000
     15         47           0        4.000021    0.000000    0.000000
     16         47           0        6.000032    0.000000   -2.000011
     17         47           0        6.000032    2.000011    0.000000
     18         47           0        6.000032   -2.000011    0.000000
     19         47           0        6.000032    0.000000    2.000011
     20         47           0        8.000042    0.000000   -4.000021
     21         47           0        8.000042    2.000011   -2.000011
     22         47           0        8.000042    4.000021    0.000000
     23         47           0        8.000042   -2.000011   -2.000011
     24         47           0        8.000042    2.000011    2.000011
     25         47           0        8.000042   -2.000011    2.000011
     26         47           0        8.000042    0.000000    0.000000
     27         47           0        8.000042   -4.000021    0.000000
     28         47           0        8.000042    0.000000    4.000021
 ---------------------------------------------------------------------

 SCF Done:  E(RS-VWN) =  -1084.08504520     A.U. after   20 cycles

 Alpha  occ. eigenvalues --   -0.48907  -0.48899  -0.48562  -0.48562  -0.48562
 Alpha  occ. eigenvalues --   -0.48562  -0.48360  -0.48360  -0.47730  -0.47727
 Alpha  occ. eigenvalues --   -0.47628  -0.47628  -0.47334  -0.47334  -0.47209
 Alpha  occ. eigenvalues --   -0.47209  -0.47209  -0.47209  -0.47022  -0.47021
 Alpha  occ. eigenvalues --   -0.46281  -0.46281  -0.46281  -0.46281  -0.46008
 Alpha  occ. eigenvalues --   -0.46007  -0.45973  -0.45973  -0.45886  -0.45886
 Alpha  occ. eigenvalues --   -0.45886  -0.45886  -0.45472  -0.45472  -0.45428
 Alpha  occ. eigenvalues --   -0.45428  -0.45428  -0.45428  -0.44823  -0.44823
 Alpha  occ. eigenvalues --   -0.44707  -0.44707  -0.44707  -0.44707  -0.44601
 Alpha  occ. eigenvalues --   -0.44600  -0.44467  -0.44467  -0.44316  -0.44316
 Alpha  occ. eigenvalues --   -0.44309  -0.44309  -0.44308  -0.44308  -0.43973
 Alpha  occ. eigenvalues --   -0.43973  -0.43626  -0.43626  -0.43361  -0.43361
 Alpha  occ. eigenvalues --   -0.43361  -0.43361  -0.43202  -0.43202  -0.43187
 Alpha  occ. eigenvalues --   -0.43187  -0.42943  -0.42939  -0.42939  -0.42938
 Alpha  occ. eigenvalues --   -0.42795  -0.42795  -0.42795  -0.42795  -0.42622
 Alpha  occ. eigenvalues --   -0.42622  -0.42510  -0.42510  -0.42499  -0.42497
 Alpha  occ. eigenvalues --   -0.42469  -0.42469  -0.42413  -0.42413  -0.42413
 Alpha  occ. eigenvalues --   -0.42413  -0.42196  -0.42196  -0.42196  -0.42196
 Alpha  occ. eigenvalues --   -0.41965  -0.41964  -0.41857  -0.41857  -0.41582
 Alpha  occ. eigenvalues --   -0.41582  -0.41456  -0.41456  -0.41456  -0.41456
 Alpha  occ. eigenvalues --   -0.41341  -0.41341  -0.41223  -0.41223  -0.41223
 Alpha  occ. eigenvalues --   -0.41223  -0.41043  -0.41043  -0.40973  -0.40973
 Alpha  occ. eigenvalues --   -0.40942  -0.40942  -0.40942  -0.40942  -0.40830
 Alpha  occ. eigenvalues --   -0.40830  -0.40795  -0.40795  -0.40795  -0.40795
 Alpha  occ. eigenvalues --   -0.40753  -0.40751  -0.40437  -0.40437  -0.40152
 Alpha  occ. eigenvalues --   -0.40152  -0.40142  -0.40142  -0.40142  -0.40142
 Alpha  occ. eigenvalues --   -0.39062  -0.39062  -0.39062  -0.39062  -0.39051
 Alpha  occ. eigenvalues --   -0.39051  -0.38998  -0.38998  -0.37976  -0.37976
 Alpha  occ. eigenvalues --   -0.28677  -0.28677  -0.26251  -0.26251  -0.26250
 Alpha  occ. eigenvalues --   -0.26250  -0.23819  -0.23730  -0.20877  -0.20876
 Alpha  occ. eigenvalues --   -0.16801  -0.16801  -0.16316  -0.16310
 Alpha virt. eigenvalues --   -0.15527  -0.15527  -0.15526  -0.15526  -0.12216
 Alpha virt. eigenvalues --   -0.12095  -0.12017  -0.12017  -0.12015  -0.12015
 Alpha virt. eigenvalues --   -0.08411  -0.08407  -0.08012  -0.08012  -0.07996

 Mulliken charges:
               1
     1  Ag  -0.035118
     2  Ag  -0.035118
     3  Ag  -0.194487
     4  Ag   0.015237
     5  Ag   0.015237
     6  Ag   0.015237
     7  Ag  -0.035118
     8  Ag   0.015237
     9  Ag  -0.035118
    10  Ag  -0.015494
    11  Ag  -0.015494
    12  Ag  -0.015493
    13  Ag  -0.015494
    14  Ag   0.335791
    15  Ag   0.335791
    16  Ag  -0.015494
    17  Ag  -0.015493
    18  Ag  -0.015494
    19  Ag  -0.015494
    20  Ag  -0.035118
    21  Ag   0.015237
    22  Ag  -0.035118
    23  Ag   0.015237
    24  Ag   0.015237
    25  Ag   0.015237
    26  Ag  -0.194487
    27  Ag  -0.035118
    28  Ag  -0.035118
 Sum of Mulliken charges =  -0.00039

 Dipole moment (field-independent basis, Debye):
    X=              0.0000    Y=              0.0000    Z=              0.0000  Tot=              0.0000
 Quadrupole moment (field-independent basis, Debye-Ang):
   XX=          -1141.6944   YY=           -673.8589   ZZ=           -673.8589
   XY=              0.0000   XZ=              0.0000   YZ=              0.0000

 Normal termination of Gaussian 09 at Sun Jan 10 21:06:20 2021.
