 Gaussian 09, Revision D.01,
 Gaussian 09:  ES64L-G09RevD.01 24-Apr-2013

 -----------------------------------------------------------
 #p lsda/gen pseudo=read gfinput Scf=(dsymm,conver=6,nodamp)
 -----------------------------------------------------------

 -----------
 Au-Au-Au-Au
 -----------
 Symbolic Z-matrix:
 Charge =  0 Multiplicity = 1

                         Standard orientation:
 ---------------------------------------------------------------------
 Center     Atomic      Atomic             Coordinates (Angstroms)
 Number     Number       Type             X           Y           Z
 ---------------------------------------------------------------------
      1         79           0        0.000000    0.000000    4.500000
      2         79           0        0.000000    0.000000    1.500000
      3         79           0        0.000000    0.000000   -1.500000
      4         79           0        0.000000    0.000000   -4.500000
 ---------------------------------------------------------------------

 SCF Done:  E(RS-VWN) = -0.873387150311     A.U. after   25 cycles

 The electronic state is 1-SGG.
 Alpha  occ. eigenvalues --   -0.13168  -0.11022
 Alpha virt. eigenvalues --   -0.05790   0.04355

 Mulliken charges:
               1
     1  Au   0.069261
     2  Au   0.000001
     3  Au   0.000001
     4  Au   0.069261
 Sum of Mulliken charges =   0.13852

 Dipole moment (field-independent basis, Debye):
    X=              0.0000    Y=              0.0000    Z=              0.0000  Tot=              0.0000
 Quadrupole moment (field-independent basis, Debye-Ang):
   XX=            -18.6386   YY=            -18.6386   ZZ=              3.4048
   XY=              0.0000   XZ=             -0.0000   YZ=              0.0000

 Normal termination of Gaussian 09 at Sat Apr 10 18:11:47 2021.
