 Gaussian 09, Revision D.01,
 Gaussian 09:  ES64L-G09RevD.01 24-Apr-2013

 ----------------------------------------------------------------------
 #p lsda/gen pseudo=read gfinput Scf=(dsymm,conver=6,nodamp,maxcycle=10
 0)
 ----------------------------------------------------------------------

 -----------------
 Au-Au-Au-Au-Au-Au
 -----------------
 Symbolic Z-matrix:
 Charge =  0 Multiplicity = 1

                         Standard orientation:
 ---------------------------------------------------------------------
 Center     Atomic      Atomic             Coordinates (Angstroms)
 Number     Number       Type             X           Y           Z
 ---------------------------------------------------------------------
      1         79           0        0.000000    0.000000    7.500000
      2         79           0        0.000000    0.000000    4.500000
      3         79           0        0.000000    0.000000    1.500000
      4         79           0        0.000000    0.000000   -1.500000
      5         79           0        0.000000    0.000000   -4.500000
      6         79           0        0.000000    0.000000   -7.500000
 ---------------------------------------------------------------------

 SCF Done:  E(RS-VWN) =  -1.33369758881     A.U. after    5 cycles

 The electronic state is 1-SGG.
 Alpha  occ. eigenvalues --   -0.13473  -0.12562  -0.10620
 Alpha virt. eigenvalues --   -0.06935  -0.00638   0.07632

 Mulliken charges:
               1
     1  Au   0.060616
     2  Au  -0.000551
     3  Au   0.000551
     4  Au   0.000551
     5  Au  -0.000551
     6  Au   0.060616
 Sum of Mulliken charges =   0.12123

 Dipole moment (field-independent basis, Debye):
    X=              0.0000    Y=              0.0000    Z=              0.0000  Tot=              0.0000
 Quadrupole moment (field-independent basis, Debye-Ang):
   XX=            -28.3852   YY=            -28.3852   ZZ=             18.4257
   XY=              0.0000   XZ=             -0.0000   YZ=              0.0000

 Normal termination of Gaussian 09 at Mon Apr 19 14:08:49 2021.
