 Gaussian 09, Revision D.01,
 Gaussian 09:  ES64L-G09RevD.01 24-Apr-2013

 ----------------------------------------------------------------------
 #p lsda/gen pseudo=read pop=reg Scf=(conver=6,maxcycle=100,dsymm,nodam
 p)
 ----------------------------------------------------------------------

 ---------
 Au5-chain
 ---------
 Symbolic Z-matrix:
 Charge =  1 Multiplicity = 1

                         Standard orientation:
 ---------------------------------------------------------------------
 Center     Atomic      Atomic             Coordinates (Angstroms)
 Number     Number       Type             X           Y           Z
 ---------------------------------------------------------------------
      1         79           0        0.000000    0.000000    6.000000
      2         79           0        0.000000    0.000000    3.000000
      3         79           0        0.000000    0.000000    0.000000
      4         79           0        0.000000    0.000000   -3.000000
      5         79           0        0.000000    0.000000   -6.000000
 ---------------------------------------------------------------------

 SCF Done:  E(RS-VWN) =  -174.017216929     A.U. after    6 cycles

 The electronic state is 1-SGG.
 Alpha  occ. eigenvalues --   -0.57809  -0.56913  -0.55792  -0.55792  -0.55715
 Alpha  occ. eigenvalues --   -0.55705  -0.55705  -0.55097  -0.55097  -0.55096
 Alpha  occ. eigenvalues --   -0.55096  -0.55015  -0.55015  -0.53864  -0.53863
 Alpha  occ. eigenvalues --   -0.52626  -0.52527  -0.52527  -0.51887  -0.51887
 Alpha  occ. eigenvalues --   -0.51786  -0.51785  -0.51765  -0.51764  -0.51154
 Alpha  occ. eigenvalues --   -0.39462  -0.38791
 Alpha virt. eigenvalues --   -0.36731  -0.32216  -0.25934  -0.18054  -0.18054
 Alpha virt. eigenvalues --   -0.16710  -0.16581  -0.16581  -0.14532  -0.14532
 Alpha virt. eigenvalues --   -0.11288  -0.11288  -0.07524  -0.07524   0.01326

 Mulliken charges:
               1
     1  Au   0.265740
     2  Au   0.074010
     3  Au   0.320500
     4  Au   0.074010
     5  Au   0.265740
 Sum of Mulliken charges =   1.00000

 Dipole moment (field-independent basis, Debye):
    X=              0.0000    Y=             -0.0000    Z=             -0.0000  Tot=              0.0000
 Quadrupole moment (field-independent basis, Debye-Ang):
   XX=            -87.1974   YY=            -87.1974   ZZ=             52.1446
   XY=             -0.0000   XZ=             -0.0000   YZ=              0.0000

 Normal termination of Gaussian 09 at Thu Jul  7 15:46:26 2022.
