 Gaussian 09, Revision D.01,
 Gaussian 09:  ES64L-G09RevD.01 24-Apr-2013

 -----------------------------------------------------------------
 #p lsda/gen pseudo=read pop=reg Scf=(conver=6,maxcycle=100,dsymm)
 -----------------------------------------------------------------

 ---------
 Au6-chain
 ---------
 Symbolic Z-matrix:
 Charge =  0 Multiplicity = 1

                         Standard orientation:
 ---------------------------------------------------------------------
 Center     Atomic      Atomic             Coordinates (Angstroms)
 Number     Number       Type             X           Y           Z
 ---------------------------------------------------------------------
      1         79           0        0.000000    0.000000    7.500000
      2         79           0        0.000000    0.000000    4.500000
      3         79           0        0.000000    0.000000    1.500000
      4         79           0        0.000000    0.000000   -1.500000
      5         79           0        0.000000    0.000000   -4.500000
      6         79           0        0.000000    0.000000   -7.500000
 ---------------------------------------------------------------------

 SCF Done:  E(RS-VWN) =  -209.151998208     A.U. after   10 cycles

 The electronic state is 1-SGG.
 Alpha  occ. eigenvalues --   -0.40662  -0.39758  -0.38722  -0.38722  -0.38256
 Alpha  occ. eigenvalues --   -0.38256  -0.38248  -0.37558  -0.37558  -0.37225
 Alpha  occ. eigenvalues --   -0.37225  -0.37136  -0.37136  -0.37012  -0.37012
 Alpha  occ. eigenvalues --   -0.36880  -0.36880  -0.36768  -0.36768  -0.36751
 Alpha  occ. eigenvalues --   -0.36751  -0.36697  -0.36697  -0.36648  -0.35999
 Alpha  occ. eigenvalues --   -0.35999  -0.35465  -0.35465  -0.35314  -0.34462
 Alpha  occ. eigenvalues --   -0.25203  -0.24715  -0.22944
 Alpha virt. eigenvalues --   -0.20234  -0.16417  -0.11223  -0.07021  -0.07021
 Alpha virt. eigenvalues --   -0.05946  -0.05946  -0.04210  -0.04210  -0.03202
 Alpha virt. eigenvalues --   -0.01817  -0.01817   0.01356   0.01356   0.05254

 Mulliken charges:
               1
     1  Au   0.016676
     2  Au  -0.016070
     3  Au   0.016070
     4  Au   0.016070
     5  Au  -0.016070
     6  Au   0.016676
 Sum of Mulliken charges =   0.03335

 Dipole moment (field-independent basis, Debye):
    X=              0.0000    Y=              0.0000    Z=              0.0000  Tot=              0.0000
 Quadrupole moment (field-independent basis, Debye-Ang):
   XX=           -110.8299   YY=           -110.8299   ZZ=            -80.5956
   XY=             -0.0000   XZ=             -0.0000   YZ=              0.0000

 Normal termination of Gaussian 09 at Thu May  6 09:55:29 2021.
