 Gaussian 09, Revision D.01,
 Gaussian 09:  ES64L-G09RevD.01 24-Apr-2013

 ----------------------------------------------------------------------
 #p lsda/gen pseudo=read pop=reg Scf=(conver=5,maxcycle=100,dsymm,nodam
 p)
 ----------------------------------------------------------------------

 ---------
 Au8-chain
 ---------
 Symbolic Z-matrix:
 Charge =  0 Multiplicity = 1

                         Standard orientation:
 ---------------------------------------------------------------------
 Center     Atomic      Atomic             Coordinates (Angstroms)
 Number     Number       Type             X           Y           Z
 ---------------------------------------------------------------------
      1         79           0        0.000000    0.000000   10.500000
      2         79           0        0.000000    0.000000    7.500000
      3         79           0        0.000000    0.000000    4.500000
      4         79           0        0.000000    0.000000    1.500000
      5         79           0        0.000000    0.000000   -1.500000
      6         79           0        0.000000    0.000000   -4.500000
      7         79           0        0.000000    0.000000   -7.500000
      8         79           0        0.000000    0.000000  -10.500000
 ---------------------------------------------------------------------

 SCF Done:  E(RS-VWN) =  -278.877926857     A.U. after    2 cycles

 The electronic state is 1-SGG.
 Alpha  occ. eigenvalues --   -0.40807  -0.40310  -0.39324  -0.38788  -0.38788
 Alpha  occ. eigenvalues --   -0.38506  -0.38506  -0.38119  -0.38061  -0.38061
 Alpha  occ. eigenvalues --   -0.37495  -0.37495  -0.37238  -0.37238  -0.37184
 Alpha  occ. eigenvalues --   -0.37184  -0.37102  -0.37102  -0.37003  -0.37003
 Alpha  occ. eigenvalues --   -0.36900  -0.36900  -0.36866  -0.36866  -0.36866
 Alpha  occ. eigenvalues --   -0.36807  -0.36807  -0.36734  -0.36734  -0.36688
 Alpha  occ. eigenvalues --   -0.36688  -0.36253  -0.36253  -0.35750  -0.35737
 Alpha  occ. eigenvalues --   -0.35737  -0.35393  -0.35393  -0.34891  -0.34354
 Alpha  occ. eigenvalues --   -0.25322  -0.25215  -0.24231  -0.22779
 Alpha virt. eigenvalues --   -0.20684  -0.17965  -0.14506  -0.10010  -0.07165
 Alpha virt. eigenvalues --   -0.07165  -0.06507  -0.06507  -0.05433  -0.05433
 Alpha virt. eigenvalues --   -0.03960  -0.03960  -0.03615  -0.02081  -0.02081

 Mulliken charges:
               1
     1  Au   0.016787
     2  Au  -0.007542
     3  Au   0.027828
     4  Au   0.001234
     5  Au   0.001234
     6  Au   0.027828
     7  Au  -0.007542
     8  Au   0.016787
 Sum of Mulliken charges =   0.07661

 Dipole moment (field-independent basis, Debye):
    X=              0.0000    Y=              0.0000    Z=              0.0000  Tot=              0.0000
 Quadrupole moment (field-independent basis, Debye-Ang):
   XX=           -147.4652   YY=           -147.4652   ZZ=            -93.6381
   XY=              0.0000   XZ=              0.0000   YZ=              0.0000

 Normal termination of Gaussian 09 at Fri Jul  8 23:17:24 2022.
