 Gaussian 09, Revision D.01,
 Gaussian 09:  ES64L-G09RevD.01 24-Apr-2013

 ----------------------------------------------------------------------
 #p lsda/gen pseudo=read pop=reg Scf=(conver=6,maxcycle=100,dsymm,nodam
 p)
 ----------------------------------------------------------------------

 ---------
 Au9-chain
 ---------
 Symbolic Z-matrix:
 Charge =  1 Multiplicity = 1

                         Standard orientation:
 ---------------------------------------------------------------------
 Center     Atomic      Atomic             Coordinates (Angstroms)
 Number     Number       Type             X           Y           Z
 ---------------------------------------------------------------------
      1         79           0        0.000000    0.000000   12.000000
      2         79           0        0.000000    0.000000    9.000000
      3         79           0        0.000000    0.000000    6.000000
      4         79           0        0.000000    0.000000    3.000000
      5         79           0        0.000000    0.000000    0.000000
      6         79           0        0.000000    0.000000   -3.000000
      7         79           0        0.000000    0.000000   -6.000000
      8         79           0        0.000000    0.000000   -9.000000
      9         79           0        0.000000    0.000000  -12.000000
 ---------------------------------------------------------------------

 SCF Done:  E(RS-VWN) =  -313.732721291     A.U. after    6 cycles

 The electronic state is 1-SGG.
 Alpha  occ. eigenvalues --   -0.40848  -0.40469  -0.39661  -0.38807  -0.38807
 Alpha  occ. eigenvalues --   -0.38636  -0.38579  -0.38579  -0.38215  -0.38215
 Alpha  occ. eigenvalues --   -0.37740  -0.37740  -0.37503  -0.37241  -0.37241
 Alpha  occ. eigenvalues --   -0.37198  -0.37198  -0.37192  -0.37192  -0.37130
 Alpha  occ. eigenvalues --   -0.37130  -0.37045  -0.37045  -0.36953  -0.36953
 Alpha  occ. eigenvalues --   -0.36863  -0.36863  -0.36784  -0.36784  -0.36723
 Alpha  occ. eigenvalues --   -0.36723  -0.36686  -0.36686  -0.36623  -0.36623
 Alpha  occ. eigenvalues --   -0.36410  -0.36091  -0.36091  -0.35656  -0.35656
 Alpha  occ. eigenvalues --   -0.35473  -0.35372  -0.35372  -0.34763  -0.34321
 Alpha  occ. eigenvalues --   -0.25361  -0.25343  -0.24572  -0.23466
 Alpha virt. eigenvalues --   -0.21834  -0.19710  -0.17064  -0.13814  -0.09448
 Alpha virt. eigenvalues --   -0.07207  -0.07207  -0.06672  -0.06672  -0.05796
 Alpha virt. eigenvalues --   -0.05796  -0.04592  -0.04592  -0.04001  -0.03064

 Mulliken charges:
               1
     1  Au   0.023757
     2  Au   0.002042
     3  Au   0.034098
     4  Au   0.016379
     5  Au   0.000000
     6  Au   0.016379
     7  Au   0.034098
     8  Au   0.002042
     9  Au   0.023757
 Sum of Mulliken charges =   0.15255

 Dipole moment (field-independent basis, Debye):
    X=              0.0000    Y=              0.0000    Z=              0.0000  Tot=              0.0000
 Quadrupole moment (field-independent basis, Debye-Ang):
   XX=           -165.3744   YY=           -165.3744   ZZ=            -65.8655
   XY=              0.0000   XZ=              0.0000   YZ=              0.0000

 Normal termination of Gaussian 09 at Sat Jul  9 15:14:53 2022.
