 Gaussian 09, Revision D.01,
 Gaussian 09:  ES64L-G09RevD.01 24-Apr-2013

 --------------------------------------------------------
 #p lsda/sto-3g pop=reg Scf=(conver=6,maxcycle=100,dsymm)
 --------------------------------------------------------

 ---------
 H10-chain
 ---------
 Symbolic Z-matrix:
 Charge =  0 Multiplicity = 1

                         Standard orientation:
 ---------------------------------------------------------------------
 Center     Atomic      Atomic             Coordinates (Angstroms)
 Number     Number       Type             X           Y           Z
 ---------------------------------------------------------------------
      1          1           0        0.000000    0.000000    9.000000
      2          1           0        0.000000    0.000000    7.000000
      3          1           0        0.000000    0.000000    5.000000
      4          1           0        0.000000    0.000000    3.000000
      5          1           0        0.000000    0.000000    1.000000
      6          1           0        0.000000    0.000000   -1.000000
      7          1           0        0.000000    0.000000   -3.000000
      8          1           0        0.000000    0.000000   -5.000000
      9          1           0        0.000000    0.000000   -7.000000
     10          1           0        0.000000    0.000000   -9.000000
 ---------------------------------------------------------------------

 SCF Done:  E(RS-VWN) =  -4.59497586001     A.U. after   10 cycles

 The electronic state is 1-SGG.
 Alpha  occ. eigenvalues --   -0.27133  -0.26195  -0.24656  -0.22563  -0.19992
 Alpha virt. eigenvalues --   -0.17071  -0.13994  -0.11033  -0.08528  -0.06837

 Mulliken charges:
               1
     1  H    0.029506
     2  H   -0.000433
     3  H   -0.001022
     4  H    0.000898
     5  H    0.000557
     6  H    0.000557
     7  H    0.000898
     8  H   -0.001022
     9  H   -0.000433
    10  H    0.029506
 Sum of Mulliken charges =   0.05901

 Dipole moment (field-independent basis, Debye):
    X=              0.0000    Y=              0.0000    Z=             -0.0000  Tot=              0.0000
 Quadrupole moment (field-independent basis, Debye-Ang):
   XX=             -9.2744   YY=             -9.2744   ZZ=             17.8801
   XY=              0.0000   XZ=             -0.0000   YZ=              0.0000

 Normal termination of Gaussian 09 at Thu Jun 30 18:34:53 2022.
