 Gaussian 09, Revision D.01,
 Gaussian 09:  ES64L-G09RevD.01 24-Apr-2013

 --------------------------------------------------------
 #p lsda/sto-3g pop=reg Scf=(conver=6,maxcycle=100,dsymm)
 --------------------------------------------------------

 --------
 H6-chain
 --------
 Symbolic Z-matrix:
 Charge =  0 Multiplicity = 1

                         Standard orientation:
 ---------------------------------------------------------------------
 Center     Atomic      Atomic             Coordinates (Angstroms)
 Number     Number       Type             X           Y           Z
 ---------------------------------------------------------------------
      1          1           0        0.000000    0.000000    5.000000
      2          1           0        0.000000    0.000000    3.000000
      3          1           0        0.000000    0.000000    1.000000
      4          1           0        0.000000    0.000000   -1.000000
      5          1           0        0.000000    0.000000   -3.000000
      6          1           0        0.000000    0.000000   -5.000000
 ---------------------------------------------------------------------

 SCF Done:  E(RS-VWN) =  -2.72937840704     A.U. after   18 cycles

 The electronic state is 1-SGG.
 Alpha  occ. eigenvalues --   -0.20959  -0.18627  -0.14975
 Alpha virt. eigenvalues --   -0.10344  -0.05379  -0.01498

 Mulliken charges:
               1
     1  H    0.031490
     2  H   -0.000053
     3  H    0.000039
     4  H    0.000039
     5  H   -0.000053
     6  H    0.031490
 Sum of Mulliken charges =   0.06295

 Dipole moment (field-independent basis, Debye):
    X=              0.0000    Y=              0.0000    Z=             -0.0000  Tot=              0.0000
 Quadrupole moment (field-independent basis, Debye-Ang):
   XX=             -5.5144   YY=             -5.5144   ZZ=              4.5791
   XY=              0.0000   XZ=             -0.0000   YZ=              0.0000

 Normal termination of Gaussian 09 at Wed Jun 29 11:59:12 2022.
