 Gaussian 09, Revision D.01,
 Gaussian 09:  EM64L-G09RevD.01 24-Apr-2013

 ----------------------------------------------------------------------
 #p lsda/gen pseudo=read pop=min Scf=(conver=5,maxcycle=1000,dsymm,noda
 mp)
 ----------------------------------------------------------------------

 ----------------------------
 input_Electrodo_Au_3_benzene
 ----------------------------
 Symbolic Z-matrix:
 Charge =  0 Multiplicity = 1

                         Standard orientation:
 ---------------------------------------------------------------------
 Center     Atomic      Atomic             Coordinates (Angstroms)
 Number     Number       Type             X           Y           Z
 ---------------------------------------------------------------------
      1         79           0        6.243088   -2.416118   -2.224263
      2         79           0        6.243174    0.355673   -1.600272
      3         79           0        6.243114   -1.570613    0.488167
      4         79           0        6.243259    3.127464   -0.976280
      5         79           0        6.243199    1.201178    1.112159
      6         79           0        6.243140   -0.725109    3.200598
      7         79           0        3.923325   -1.210281   -1.112123
      8         79           0        3.923411    1.561510   -0.488131
      9         79           0        3.923351   -0.364776    1.600308
     10         79           0        2.595212   -0.004475    0.000018
     11          6           0        0.180066   -1.178139    0.389596
     12          6           0        0.180076   -0.844413   -0.968980
     13          1           0        0.180034   -2.217543    0.691590
     14          1           0        0.180052   -1.625650   -1.718151
     15          6           0        0.180097   -0.168471    1.357989
     16          6           0        0.180118    0.499025   -1.359358
     17          1           0        0.180089   -0.426615    2.409057
     18          6           0        0.180139    1.175042    0.967731
     19          6           0        0.180149    1.508791   -0.390943
     20          1           0        0.180126    0.757267   -2.410403
     21          1           0        0.180163    1.956182    1.716880
     22          1           0        0.180181    2.548172   -0.692839
     23         79           0       -2.604788   -0.004314    0.000017
     24         79           0       -3.932975   -1.210038   -1.112124
     25         79           0       -3.932889    1.561753   -0.488132
     26         79           0       -3.932949   -0.364533    1.600307
     27         79           0       -6.252812   -2.415731   -2.224265
     28         79           0       -6.252726    0.356060   -1.600273
     29         79           0       -6.252786   -1.570227    0.488166
     30         79           0       -6.252641    3.127851   -0.976281
     31         79           0       -6.252701    1.201564    1.112157
     32         79           0       -6.252760   -0.724722    3.200596
 ---------------------------------------------------------------------

 SCF Done:  E(RS-VWN) =  -926.896969511     A.U. after    2 cycles

 The electronic state is 1-A.
 Alpha  occ. eigenvalues --   -9.99602  -9.99585  -9.99583  -9.99550  -9.99548
 Alpha  occ. eigenvalues --   -9.99533  -0.95191  -0.84554  -0.84547  -0.70993
 Alpha  occ. eigenvalues --   -0.70991  -0.63031  -0.58759  -0.55149  -0.53673
 Alpha  occ. eigenvalues --   -0.53662  -0.52289  -0.51903  -0.51896  -0.51477
 Alpha  occ. eigenvalues --   -0.51464  -0.51283  -0.49462  -0.49459  -0.49317
 Alpha  occ. eigenvalues --   -0.49316  -0.49019  -0.46390  -0.46387  -0.44280
 Alpha  occ. eigenvalues --   -0.44085  -0.43341  -0.43339  -0.43326  -0.43326
 Alpha  occ. eigenvalues --   -0.42720  -0.42654  -0.42217  -0.42183  -0.41888
 Alpha  occ. eigenvalues --   -0.41885  -0.41860  -0.41859  -0.41602  -0.41591
 Alpha  occ. eigenvalues --   -0.41557  -0.41557  -0.41110  -0.41066  -0.40921
 Alpha  occ. eigenvalues --   -0.40916  -0.40133  -0.40132  -0.40131  -0.40131
 Alpha  occ. eigenvalues --   -0.39109  -0.39078  -0.38157  -0.38157  -0.37906
 Alpha  occ. eigenvalues --   -0.37903  -0.37901  -0.37895  -0.37850  -0.37849
 Alpha  occ. eigenvalues --   -0.37846  -0.37845  -0.37620  -0.37607  -0.37441
 Alpha  occ. eigenvalues --   -0.37417  -0.37306  -0.37306  -0.37260  -0.37258
 Alpha  occ. eigenvalues --   -0.37169  -0.37143  -0.36903  -0.36901  -0.36705
 Alpha  occ. eigenvalues --   -0.36705  -0.36699  -0.36696  -0.36335  -0.36335
 Alpha  occ. eigenvalues --   -0.36329  -0.36327  -0.35749  -0.35748  -0.35746
 Alpha  occ. eigenvalues --   -0.35746  -0.35563  -0.35563  -0.35434  -0.35430
 Alpha  occ. eigenvalues --   -0.35397  -0.35392  -0.35281  -0.35268  -0.34702
 Alpha  occ. eigenvalues --   -0.34702  -0.34662  -0.34638  -0.34394  -0.34391
 Alpha  occ. eigenvalues --   -0.33903  -0.33901  -0.33800  -0.33800  -0.33799
 Alpha  occ. eigenvalues --   -0.33799  -0.32974  -0.32104  -0.31547  -0.31429
 Alpha  occ. eigenvalues --   -0.30992  -0.30976  -0.30883  -0.30786  -0.27499
 Alpha  occ. eigenvalues --   -0.27490  -0.27301  -0.27172  -0.25405  -0.25404
 Alpha  occ. eigenvalues --   -0.25317  -0.25312  -0.24796  -0.23578  -0.18704
 Alpha  occ. eigenvalues --   -0.18687
 Alpha virt. eigenvalues --   -0.14551  -0.14547  -0.14545  -0.14331  -0.14311
 Alpha virt. eigenvalues --   -0.14214  -0.13422  -0.13416  -0.12989  -0.12965
 Alpha virt. eigenvalues --   -0.08915  -0.07919  -0.05444  -0.05443  -0.05281

 Mulliken charges:
               1
     1  Au  -0.264272
     2  Au  -0.072947
     3  Au  -0.072250
     4  Au  -0.266673
     5  Au  -0.073235
     6  Au  -0.265137
     7  Au   0.095679
     8  Au   0.116782
     9  Au   0.102156
    10  Au   0.313060
    11  C   -0.185246
    12  C   -0.207577
    13  H    0.319059
    14  H    0.318399
    15  C   -0.204132
    16  C   -0.181954
    17  H    0.313787
    18  C   -0.180987
    19  C   -0.198688
    20  H    0.308527
    21  H    0.305234
    22  H    0.304832
    23  Au   0.162225
    24  Au   0.141543
    25  Au   0.152256
    26  Au   0.144771
    27  Au  -0.242189
    28  Au  -0.065415
    29  Au  -0.064725
    30  Au  -0.244238
    31  Au  -0.065786
    32  Au  -0.242862
 Sum of Mulliken charges =  -0.00000

 Dipole moment (field-independent basis, Debye):
    X=              0.2375    Y=              0.2946    Z=             -0.0017  Tot=              0.3784
 Quadrupole moment (field-independent basis, Debye-Ang):
   XX=           -617.8646   YY=           -454.9523   ZZ=           -454.9478
   XY=              0.0696   XZ=              0.0006   YZ=              0.0355

 Normal termination of Gaussian 09 at Fri Apr 30 15:57:26 2021.
