 Gaussian 09, Revision D.01,
 Gaussian 09:  ES64L-G09RevD.01 24-Apr-2013

 ---------------------------------------------------------
 #p blyp/gen pseudo=read scf=(maxcycle=300,conver=5,dsymm)
 ---------------------------------------------------------

 -------------
 Al-benzene-Al
 -------------
 Symbolic Z-matrix:
 Charge =  0 Multiplicity = 1

                         Standard orientation:
 ---------------------------------------------------------------------
 Center     Atomic      Atomic             Coordinates (Angstroms)
 Number     Number       Type             X           Y           Z
 ---------------------------------------------------------------------
      1         13           0        7.629859   -3.505885   -2.529597
      2         13           0        7.629763   -2.483115   -0.252766
      3         13           0        7.629668   -1.460344    2.024065
      4         13           0        7.629572   -0.437574    4.300896
      5         13           0        7.629858   -1.022707   -2.276927
      6         13           0        7.629762    0.000064   -0.000096
      7         13           0        7.629667    1.022834    2.276735
      8         13           0        7.629857    1.460471   -2.024257
      9         13           0        7.629761    2.483242    0.252574
     10         13           0        7.629856    3.943650   -1.771587
     11         13           0        5.591836   -2.337227   -1.686522
     12         13           0        5.591741   -1.314456    0.590309
     13         13           0        5.591646   -0.291686    2.867139
     14         13           0        5.591836    0.145951   -1.433853
     15         13           0        5.591740    1.168722    0.842978
     16         13           0        5.591835    2.629130   -1.181183
     17         13           0        3.553834   -1.168570   -0.843438
     18         13           0        3.553739   -0.145799    1.433393
     19         13           0        3.553833    1.314608   -0.590768
     20         13           0        1.668282   -0.000666    0.005276
     21          6           0       -0.029711   -0.146137    1.428798
     22          6           0       -0.012359   -1.308871    0.591705
     23          6           0        0.013444   -1.162298   -0.833467
     24          6           0        0.023905    0.144459   -1.421977
     25          6           0        0.012943    1.305651   -0.581975
     26          6           0       -0.012660    1.161569    0.843511
     27          1           0       -0.050309   -0.256567    2.512002
     28          1           0       -0.022133   -2.301837    1.037768
     29          1           0        0.023798   -2.045498   -1.470405
     30          1           0        0.043683    0.254795   -2.504749
     31          1           0        0.023027    2.299195   -1.027698
     32          1           0       -0.023024    2.044146    1.480737
     33         13           0       -1.668798    0.000107   -0.003327
     34         13           0       -3.553626   -1.168541   -0.843749
     35         13           0       -3.553721   -0.145770    1.433082
     36         13           0       -3.553627    1.314637   -0.591079
     37         13           0       -5.591564   -2.337181   -1.687012
     38         13           0       -5.591659   -1.314411    0.589819
     39         13           0       -5.591754   -0.291640    2.866650
     40         13           0       -5.591564    0.145997   -1.434342
     41         13           0       -5.591660    1.168767    0.842489
     42         13           0       -5.591565    2.629175   -1.181672
     43         13           0       -7.629501   -3.505823   -2.530264
     44         13           0       -7.629597   -2.483052   -0.253433
     45         13           0       -7.629692   -1.460282    2.023398
     46         13           0       -7.629788   -0.437512    4.300229
     47         13           0       -7.629502   -1.022645   -2.277594
     48         13           0       -7.629598    0.000126   -0.000763
     49         13           0       -7.629693    1.022896    2.276068
     50         13           0       -7.629503    1.460534   -2.024924
     51         13           0       -7.629599    2.483304    0.251907
     52         13           0       -7.629504    3.943712   -1.772254
 ---------------------------------------------------------------------

 SCF Done:  E(RB-LYP) =  -299.719261720     A.U. after   59 cycles

 The electronic state is 1-A.
 Alpha  occ. eigenvalues --   -9.97783  -9.97742  -9.97626  -9.96511  -9.96482
 Alpha  occ. eigenvalues --   -9.96416  -1.01488  -0.86838  -0.86821  -0.69491
 Alpha  occ. eigenvalues --   -0.69489  -0.66743  -0.66522  -0.62407  -0.61931
 Alpha  occ. eigenvalues --   -0.59406  -0.59325  -0.59188  -0.59176  -0.59136
 Alpha  occ. eigenvalues --   -0.57904  -0.55252  -0.53811  -0.53792  -0.53458
 Alpha  occ. eigenvalues --   -0.50539  -0.49369  -0.49008  -0.48548  -0.48404
 Alpha  occ. eigenvalues --   -0.48378  -0.48371  -0.47975  -0.47665  -0.47594
 Alpha  occ. eigenvalues --   -0.47443  -0.47420  -0.45734  -0.45710  -0.44917
 Alpha  occ. eigenvalues --   -0.44913  -0.37466  -0.37182  -0.37058  -0.36985
 Alpha  occ. eigenvalues --   -0.36918  -0.36529  -0.35937  -0.35303  -0.34119
 Alpha  occ. eigenvalues --   -0.34043  -0.33853  -0.33801  -0.33527  -0.33472
 Alpha  occ. eigenvalues --   -0.30139  -0.30016  -0.29993  -0.29916  -0.29875
 Alpha  occ. eigenvalues --   -0.29850  -0.25538  -0.25438  -0.24678  -0.24626
 Alpha  occ. eigenvalues --   -0.24591  -0.24555  -0.24282  -0.24223  -0.24080
 Alpha  occ. eigenvalues --   -0.23963  -0.23140  -0.22591  -0.21777  -0.21732
 Alpha  occ. eigenvalues --   -0.21432  -0.21411  -0.21340  -0.21293  -0.21002
 Alpha  occ. eigenvalues --   -0.20938
 Alpha virt. eigenvalues --   -0.20859  -0.20846  -0.20785  -0.20732  -0.20508
 Alpha virt. eigenvalues --   -0.20438  -0.19243  -0.18843  -0.18374  -0.18368
 Alpha virt. eigenvalues --   -0.15459  -0.11894  -0.10048  -0.09965  -0.09873

 Mulliken charges:
               1
     1  Al  -0.076559
     2  Al  -0.067607
     3  Al  -0.073003
     4  Al  -0.074916
     5  Al  -0.068653
     6  Al   0.006548
     7  Al  -0.066614
     8  Al  -0.074269
     9  Al  -0.066976
    10  Al  -0.073588
    11  Al   0.026050
    12  Al   0.127580
    13  Al   0.030425
    14  Al   0.129269
    15  Al   0.117998
    16  Al   0.028846
    17  Al  -0.027340
    18  Al  -0.027521
    19  Al  -0.027720
    20  Al  -0.015307
    21  C   -0.110478
    22  C   -0.121185
    23  C   -0.110435
    24  C   -0.124721
    25  C   -0.112754
    26  C   -0.123415
    27  H    0.214907
    28  H    0.201627
    29  H    0.215184
    30  H    0.202159
    31  H    0.215340
    32  H    0.201906
    33  Al  -0.017981
    34  Al  -0.024849
    35  Al  -0.027484
    36  Al  -0.030221
    37  Al   0.032838
    38  Al   0.113200
    39  Al   0.031061
    40  Al   0.122421
    41  Al   0.135642
    42  Al   0.032770
    43  Al  -0.072578
    44  Al  -0.067093
    45  Al  -0.064398
    46  Al  -0.075050
    47  Al  -0.074515
    48  Al   0.006412
    49  Al  -0.077743
    50  Al  -0.063637
    51  Al  -0.070849
    52  Al  -0.082705
 Sum of Mulliken charges =   0.00002

 Dipole moment (field-independent basis, Debye):
    X=              0.0662    Y=             -0.1236    Z=              0.0521  Tot=              0.1496
 Quadrupole moment (field-independent basis, Debye-Ang):
   XX=           -770.5998   YY=           -582.4277   ZZ=           -582.2200
   XY=              1.9075   XZ=              0.2135   YZ=              0.2030

 Normal termination of Gaussian 09 at Fri Feb 12 12:19:58 2016.
