 Gaussian 09, Revision D.01,
 Gaussian 09:  ES64L-G09RevD.01 24-Apr-2013

 ----------------------------------------------------------------------
 #p ublyp/gen pseudo=read Scf=(conver=6,nodamp) opt(z-matrix,maxcycle=1
 00,loose) nosymm
 ----------------------------------------------------------------------

 ---------
 Al9-Al4-C
 ---------
 Symbolic Z-matrix:
 Charge =  0 Multiplicity = 1

 SCF Done:  E(UB-LYP) =  -61.8845506322     A.U. after   34 cycles
 SCF Done:  E(UB-LYP) =  -62.0982000941     A.U. after   12 cycles
 SCF Done:  E(UB-LYP) =  -62.2531495697     A.U. after   15 cycles
 SCF Done:  E(UB-LYP) =  -62.6744662318     A.U. after   20 cycles
 SCF Done:  E(UB-LYP) =  -62.9498001890     A.U. after   20 cycles
 SCF Done:  E(UB-LYP) =  -62.9850043584     A.U. after   31 cycles
 SCF Done:  E(UB-LYP) =  -63.0040276893     A.U. after   45 cycles
 SCF Done:  E(UB-LYP) =  -63.0048387522     A.U. after   10 cycles
 SCF Done:  E(UB-LYP) =  -63.0072930892     A.U. after   15 cycles
 SCF Done:  E(UB-LYP) =  -63.0096673994     A.U. after   15 cycles
 SCF Done:  E(UB-LYP) =  -63.0062883105     A.U. after   28 cycles
 SCF Done:  E(UB-LYP) =  -63.0106526468     A.U. after   25 cycles
 SCF Done:  E(UB-LYP) =  -63.0104849312     A.U. after   10 cycles
 SCF Done:  E(UB-LYP) =  -63.0104279238     A.U. after   10 cycles
 SCF Done:  E(UB-LYP) =  -63.0107178757     A.U. after    5 cycles
 SCF Done:  E(UB-LYP) =  -63.0108494556     A.U. after   21 cycles
 Optimization completed.
    -- Stationary point found.

                         Z-Matrix orientation:
 ---------------------------------------------------------------------
 Center     Atomic      Atomic             Coordinates (Angstroms)
 Number     Number       Type             X           Y           Z
 ---------------------------------------------------------------------
      1         13           0       -4.000000    0.000000   -6.000000
      2         13           0        0.000000    4.000000   -6.000000
      3         13           0        0.000000    0.000000   -6.000000
      4         13           0       -2.000000    2.000000   -6.000000
      5         13           0       -2.000000   -2.000000   -6.000000
      6         13           0        2.000000    2.000000   -6.000000
      7         13           0        0.000000   -4.000000   -6.000000
      8         13           0        2.000000   -2.000000   -6.000000
      9         13           0        4.000000    0.000000   -6.000000
     10         13           0       -2.000000    0.000000   -4.000000
     11         13           0        0.000000    2.000000   -4.000000
     12         13           0        0.000000   -2.000000   -4.000000
     13         13           0        2.000000    0.000000   -4.000000
     14         13           0        0.000000    0.000000   -1.246896
     15          6           0        0.000000    0.000000    0.771202
 ---------------------------------------------------------------------

 Alpha  occ. eigenvalues --  -10.02873  -0.52275  -0.49048  -0.45770  -0.45711
 Alpha  occ. eigenvalues --   -0.40457  -0.39744  -0.36498  -0.35142  -0.34069
 Alpha  occ. eigenvalues --   -0.33960  -0.30873  -0.30845  -0.28283  -0.28262
 Alpha  occ. eigenvalues --   -0.26117  -0.25415  -0.22898  -0.22893  -0.22790
 Alpha  occ. eigenvalues --   -0.21229  -0.20400  -0.18618  -0.18457
 Alpha virt. eigenvalues --   -0.18324  -0.17744  -0.15533  -0.15459  -0.12349
 Alpha virt. eigenvalues --   -0.12334  -0.11661  -0.11095  -0.10905  -0.08082
 Alpha virt. eigenvalues --   -0.06336  -0.06310  -0.05436  -0.04827  -0.04802

  Beta  occ. eigenvalues --  -10.02873  -0.52275  -0.49048  -0.45770  -0.45711
  Beta  occ. eigenvalues --   -0.40457  -0.39744  -0.36498  -0.35142  -0.34069
  Beta  occ. eigenvalues --   -0.33960  -0.30873  -0.30845  -0.28283  -0.28262
  Beta  occ. eigenvalues --   -0.26117  -0.25415  -0.22898  -0.22893  -0.22790
  Beta  occ. eigenvalues --   -0.21229  -0.20400  -0.18618  -0.18457
  Beta virt. eigenvalues --   -0.18324  -0.17744  -0.15533  -0.15459  -0.12349
  Beta virt. eigenvalues --   -0.12334  -0.11661  -0.11095  -0.10905  -0.08082
  Beta virt. eigenvalues --   -0.06336  -0.06310  -0.05436  -0.04827  -0.04802

 Mulliken charges and spin densities:
               1          2
     1  Al  -0.017436  -0.022911
     2  Al  -0.017436  -0.022911
     3  Al  -0.049065   0.048177
     4  Al  -0.052671   0.005654
     5  Al  -0.052671   0.005654
     6  Al  -0.052671   0.005654
     7  Al  -0.017436  -0.022911
     8  Al  -0.052671   0.005654
     9  Al  -0.017436  -0.022911
    10  Al   0.044938  -0.030798
    11  Al   0.044938  -0.030798
    12  Al   0.044938  -0.030798
    13  Al   0.044938  -0.030798
    14  Al   0.035563   0.453094
    15  C    0.113506   1.924864
 Sum of Mulliken charges =  -0.00067   2.23392

 Dipole moment (field-independent basis, Debye):
    X=              0.0000    Y=              0.0000    Z=              6.5938  Tot=              6.5938
 Quadrupole moment (field-independent basis, Debye-Ang):
   XX=           -205.2357   YY=           -205.2357   ZZ=           -232.2601
   XY=              0.0000   XZ=              0.0000   YZ=              0.0000

 Normal termination of Gaussian 09 at Wed Feb 10 15:05:03 2016.
