 Gaussian 09, Revision D.01,
 Gaussian 09:  ES64L-G09RevD.01 24-Apr-2013

 --------------------------------------------
 #p lsda/gen pseudo=read Scf=(conver=5,dsymm)
 --------------------------------------------

 ---------------------
 Al9-Al4-Al-Al-Al4-Al9
 ---------------------
 Symbolic Z-matrix:
 Charge =  0 Multiplicity = 1

                         Standard orientation:
 ---------------------------------------------------------------------
 Center     Atomic      Atomic             Coordinates (Angstroms)
 Number     Number       Type             X           Y           Z
 ---------------------------------------------------------------------
      1         13           0        0.000000    4.000000    6.000000
      2         13           0       -4.000000    0.000000    6.000000
      3         13           0        0.000000    0.000000    6.000000
      4         13           0       -2.000000    2.000000    6.000000
      5         13           0        2.000000    2.000000    6.000000
      6         13           0       -2.000000   -2.000000    6.000000
      7         13           0        4.000000    0.000000    6.000000
      8         13           0        2.000000   -2.000000    6.000000
      9         13           0        0.000000   -4.000000    6.000000
     10         13           0        0.000000    2.000000    4.000000
     11         13           0       -2.000000    0.000000    4.000000
     12         13           0        2.000000    0.000000    4.000000
     13         13           0        0.000000   -2.000000    4.000000
     14         13           0        0.000000    0.000000    2.000000
     15         13           0        0.000000    0.000000   -2.000000
     16         13           0        0.000000    2.000000   -4.000000
     17         13           0       -2.000000    0.000000   -4.000000
     18         13           0        2.000000    0.000000   -4.000000
     19         13           0        0.000000   -2.000000   -4.000000
     20         13           0        0.000000    4.000000   -6.000000
     21         13           0       -2.000000    2.000000   -6.000000
     22         13           0       -4.000000    0.000000   -6.000000
     23         13           0        2.000000    2.000000   -6.000000
     24         13           0       -2.000000   -2.000000   -6.000000
     25         13           0        2.000000   -2.000000   -6.000000
     26         13           0        0.000000    0.000000   -6.000000
     27         13           0        4.000000    0.000000   -6.000000
     28         13           0        0.000000   -4.000000   -6.000000
 ---------------------------------------------------------------------

 SCF Done:  E(RS-VWN) =  -54.2246118884     A.U. after   36 cycles

 The electronic state is 1-A1G.
 Alpha  occ. eigenvalues --   -0.54515  -0.54513  -0.47958  -0.47958  -0.47957
 Alpha  occ. eigenvalues --   -0.47957  -0.43567  -0.43462  -0.42082  -0.42081
 Alpha  occ. eigenvalues --   -0.38480  -0.38401  -0.38017  -0.38017  -0.35855
 Alpha  occ. eigenvalues --   -0.35855  -0.35852  -0.35852  -0.31877  -0.31877
 Alpha  occ. eigenvalues --   -0.31866  -0.31866  -0.31072  -0.30115  -0.27464
 Alpha  occ. eigenvalues --   -0.27462  -0.25697  -0.25690  -0.25690  -0.25663
 Alpha  occ. eigenvalues --   -0.25663  -0.25447  -0.22842  -0.22833  -0.22518
 Alpha  occ. eigenvalues --   -0.22262  -0.22262  -0.21682  -0.21682  -0.21601
 Alpha  occ. eigenvalues --   -0.21601  -0.21329
 Alpha virt. eigenvalues --   -0.20462  -0.20447  -0.19809  -0.18784  -0.18784
 Alpha virt. eigenvalues --   -0.18637  -0.18637  -0.16126  -0.14816  -0.14816
 Alpha virt. eigenvalues --   -0.14741  -0.14741  -0.13424  -0.13424  -0.13232

 Mulliken charges:
               1
     1  Al  -0.038167
     2  Al  -0.038167
     3  Al   0.167052
     4  Al  -0.024178
     5  Al  -0.024178
     6  Al  -0.024178
     7  Al  -0.038167
     8  Al  -0.024178
     9  Al  -0.038167
    10  Al   0.018937
    11  Al   0.018937
    12  Al   0.018937
    13  Al   0.018937
    14  Al   0.006569
    15  Al   0.006569
    16  Al   0.018937
    17  Al   0.018937
    18  Al   0.018937
    19  Al   0.018937
    20  Al  -0.038167
    21  Al  -0.024178
    22  Al  -0.038167
    23  Al  -0.024178
    24  Al  -0.024178
    25  Al  -0.024178
    26  Al   0.167052
    27  Al  -0.038167
    28  Al  -0.038167
 Sum of Mulliken charges =  -0.00002

 Dipole moment (field-independent basis, Debye):
    X=              0.0000    Y=              0.0000    Z=              0.0000  Tot=              0.0000
 Quadrupole moment (field-independent basis, Debye-Ang):
   XX=           -397.1563   YY=           -397.1563   ZZ=           -448.5685
   XY=              0.0000   XZ=              0.0000   YZ=              0.0000

 Normal termination of Gaussian 09 at Thu Feb 28 10:10:18 2019.
