 Gaussian 09, Revision D.01,
 Gaussian 09:  ES64L-G09RevD.01 24-Apr-2013

 ------------------------------------------------------------
 #p LSDA/gen pseudo=read scf=(conver=5,dsymm,maxcyc=300) test
 ------------------------------------------------------------

 ---------------------
 Pt9-Pt4-Pt-Pt-Pt4-Pt9
 ---------------------
 Symbolic Z-matrix:
 Charge =  0 Multiplicity = 1

                         Standard orientation:
 ---------------------------------------------------------------------
 Center     Atomic      Atomic             Coordinates (Angstroms)
 Number     Number       Type             X           Y           Z
 ---------------------------------------------------------------------
      1         78           0       -1.956429    5.150000    1.960000
      2         78           0        0.003571    5.150000    3.920000
      3         78           0       -1.956429    5.150000   -1.960000
      4         78           0        0.003571    5.150000    0.000000
      5         78           0        1.963571    5.150000    1.960000
      6         78           0       -3.916429    5.150000    0.000000
      7         78           0        0.003571    5.150000   -3.920000
      8         78           0        1.963571    5.150000   -1.960000
      9         78           0        3.923571    5.150000    0.000000
     10         78           0       -1.956429    3.190000    0.000000
     11         78           0        0.003571    3.190000    1.960000
     12         78           0        0.003571    3.190000   -1.960000
     13         78           0        1.963571    3.190000    0.000000
     14         78           0       -0.096429    1.230000    0.000000
     15         78           0        0.003571   -1.230000    0.000000
     16         78           0       -1.956429   -3.190000    0.000000
     17         78           0        0.003571   -3.190000    1.960000
     18         78           0        0.003571   -3.190000   -1.960000
     19         78           0        1.963571   -3.190000    0.000000
     20         78           0       -3.916429   -5.150000    0.000000
     21         78           0       -1.956429   -5.150000    1.960000
     22         78           0        0.003571   -5.150000    3.920000
     23         78           0       -1.956429   -5.150000   -1.960000
     24         78           0        3.923571   -5.150000    0.000000
     25         78           0        0.003571   -5.150000    0.000000
     26         78           0        1.963571   -5.150000    1.960000
     27         78           0        0.003571   -5.150000   -3.920000
     28         78           0        1.963571   -5.150000   -1.960000
 ---------------------------------------------------------------------

 SCF Done:  E(RS-VWN) =  -1691.33902440     A.U. after   60 cycles

 The electronic state is 1-A'.
 Alpha  occ. eigenvalues --   -3.83521  -3.82008  -3.81524  -3.81208  -3.80931
 Alpha  occ. eigenvalues --   -3.80926  -3.80368  -3.80264  -3.78807  -3.78800
 Alpha  occ. eigenvalues --   -2.18756  -2.17967  -2.17724  -2.17168  -2.16908
 Alpha  occ. eigenvalues --   -2.16734  -2.16480  -2.16390  -2.16152  -2.16021
 Alpha  occ. eigenvalues --   -2.15852  -2.15816  -2.15692  -2.15551  -2.15515
 Alpha  occ. eigenvalues --   -2.15353  -2.15324  -2.15210  -2.15129  -2.15110
 Alpha  occ. eigenvalues --   -2.14852  -2.14852  -2.14596  -2.14340  -2.14315
 Alpha  occ. eigenvalues --   -2.13887  -2.13318  -2.13316  -2.12524  -2.12511
 Alpha  occ. eigenvalues --   -0.54349  -0.53588  -0.53549  -0.53476  -0.53228
 Alpha  occ. eigenvalues --   -0.49576  -0.46448  -0.43312  -0.42580  -0.42302
 Alpha  occ. eigenvalues --   -0.41371  -0.41130  -0.41128  -0.40569  -0.40500
 Alpha  occ. eigenvalues --   -0.40339  -0.40265  -0.39963  -0.39820  -0.39796
 Alpha  occ. eigenvalues --   -0.39535  -0.39511  -0.39278  -0.39199  -0.39145
 Alpha  occ. eigenvalues --   -0.39117  -0.38972  -0.38856  -0.38854  -0.38487
 Alpha  occ. eigenvalues --   -0.38143  -0.37669  -0.37471  -0.37409  -0.37304
 Alpha  occ. eigenvalues --   -0.37213  -0.37050  -0.36921  -0.36531  -0.36525
 Alpha  occ. eigenvalues --   -0.36355  -0.35710  -0.35703  -0.35548  -0.35498
 Alpha  occ. eigenvalues --   -0.35321  -0.35262  -0.35129  -0.35010  -0.34830
 Alpha  occ. eigenvalues --   -0.34736  -0.34511  -0.34450  -0.34329  -0.33935
 Alpha  occ. eigenvalues --   -0.33840  -0.33607  -0.33468  -0.33233  -0.33107
 Alpha  occ. eigenvalues --   -0.32965  -0.32948  -0.32911  -0.32613  -0.32226
 Alpha  occ. eigenvalues --   -0.32103  -0.32090  -0.31907  -0.31869  -0.31700
 Alpha  occ. eigenvalues --   -0.31314  -0.31270  -0.31159  -0.31103  -0.30931
 Alpha  occ. eigenvalues --   -0.30754  -0.30658  -0.30562  -0.30420  -0.30164
 Alpha  occ. eigenvalues --   -0.30136  -0.30081  -0.29937  -0.29881  -0.29755
 Alpha  occ. eigenvalues --   -0.29705  -0.29683  -0.29574  -0.29414  -0.29377
 Alpha  occ. eigenvalues --   -0.29137  -0.29104  -0.28993  -0.28871  -0.28866
 Alpha  occ. eigenvalues --   -0.28694  -0.28680  -0.28640  -0.28546  -0.28514
 Alpha  occ. eigenvalues --   -0.28329  -0.27987  -0.27869  -0.27761  -0.27648
 Alpha  occ. eigenvalues --   -0.27472  -0.27319  -0.27305  -0.27254  -0.27081
 Alpha  occ. eigenvalues --   -0.27062  -0.26993  -0.26990  -0.26860  -0.26789
 Alpha  occ. eigenvalues --   -0.26749  -0.26496  -0.26243  -0.26135  -0.26085
 Alpha  occ. eigenvalues --   -0.26038  -0.26036  -0.25858  -0.25857  -0.25819
 Alpha  occ. eigenvalues --   -0.25631  -0.25453  -0.25423  -0.25190  -0.25186
 Alpha  occ. eigenvalues --   -0.25098  -0.25093  -0.24983  -0.24968  -0.24838
 Alpha  occ. eigenvalues --   -0.24699  -0.24612  -0.24562  -0.24364  -0.24315
 Alpha virt. eigenvalues --   -0.24091  -0.23924  -0.23852  -0.23688  -0.23603
 Alpha virt. eigenvalues --   -0.23053  -0.22858  -0.22427  -0.22396  -0.21147
 Alpha virt. eigenvalues --   -0.19170  -0.18480  -0.18442  -0.17369  -0.16949

 Mulliken charges:
               1
     1  Pt  -0.186381
     2  Pt  -0.197413
     3  Pt  -0.186381
     4  Pt  -0.031421
     5  Pt  -0.186795
     6  Pt  -0.196119
     7  Pt  -0.197413
     8  Pt  -0.186795
     9  Pt  -0.193582
    10  Pt   0.372449
    11  Pt   0.363992
    12  Pt   0.363992
    13  Pt   0.374446
    14  Pt   0.084966
    15  Pt   0.082573
    16  Pt   0.369144
    17  Pt   0.367738
    18  Pt   0.367738
    19  Pt   0.366981
    20  Pt  -0.196834
    21  Pt  -0.186036
    22  Pt  -0.195295
    23  Pt  -0.186036
    24  Pt  -0.195204
    25  Pt  -0.023649
    26  Pt  -0.186678
    27  Pt  -0.195295
    28  Pt  -0.186678
 Sum of Mulliken charges =   0.00001

 Dipole moment (field-independent basis, Debye):
    X=              0.0007    Y=             -0.2041    Z=             -0.0000  Tot=              0.2041
 Quadrupole moment (field-independent basis, Debye-Ang):
   XX=           -640.7146   YY=           -830.6380   ZZ=           -641.3640
   XY=             -0.1815   XZ=              0.0000   YZ=             -0.0000

 Normal termination of Gaussian 09 at Wed Apr 10 13:42:50 2024.
