 Gaussian 09, Revision D.01,
 Gaussian 09:  ES64L-G09RevD.01 24-Apr-2013

 ------------------------------------------------------------
 #p LSDA/gen pseudo=read scf=(conver=5,dsymm,maxcyc=300) test
 ------------------------------------------------------------

 ---------------------
 Pt9-Pt4-Pt-Pt-Pt4-Pt9
 ---------------------
 Symbolic Z-matrix:
 Charge =  0 Multiplicity = 1

                         Standard orientation:
 ---------------------------------------------------------------------
 Center     Atomic      Atomic             Coordinates (Angstroms)
 Number     Number       Type             X           Y           Z
 ---------------------------------------------------------------------
      1         78           0       -1.956429    5.150000    1.960000
      2         78           0        0.003571    5.150000    3.920000
      3         78           0       -1.956429    5.150000   -1.960000
      4         78           0        0.003571    5.150000    0.000000
      5         78           0        1.963571    5.150000    1.960000
      6         78           0       -3.916429    5.150000    0.000000
      7         78           0        0.003571    5.150000   -3.920000
      8         78           0        1.963571    5.150000   -1.960000
      9         78           0        3.923571    5.150000    0.000000
     10         78           0       -1.956429    3.190000    0.000000
     11         78           0        0.003571    3.190000    1.960000
     12         78           0        0.003571    3.190000   -1.960000
     13         78           0        1.963571    3.190000    0.000000
     14         78           0       -0.096429    1.230000    0.000000
     15         78           0        0.003571   -1.230000    0.000000
     16         78           0       -1.956429   -3.190000    0.000000
     17         78           0        0.003571   -3.190000    1.960000
     18         78           0        0.003571   -3.190000   -1.960000
     19         78           0        1.963571   -3.190000    0.000000
     20         78           0       -3.916429   -5.150000    0.000000
     21         78           0       -1.956429   -5.150000    1.960000
     22         78           0        0.003571   -5.150000    3.920000
     23         78           0       -1.956429   -5.150000   -1.960000
     24         78           0        3.923571   -5.150000    0.000000
     25         78           0        0.003571   -5.150000    0.000000
     26         78           0        1.963571   -5.150000    1.960000
     27         78           0        0.003571   -5.150000   -3.920000
     28         78           0        1.963571   -5.150000   -1.960000
 ---------------------------------------------------------------------

 SCF Done:  E(RS-VWN) =  -770.754483178     A.U. after   46 cycles

 The electronic state is 1-A'.
 Alpha  occ. eigenvalues --   -0.43169  -0.40669  -0.40496  -0.40432  -0.40322
 Alpha  occ. eigenvalues --   -0.40106  -0.39902  -0.39611  -0.39437  -0.39319
 Alpha  occ. eigenvalues --   -0.39001  -0.38882  -0.38832  -0.38803  -0.38792
 Alpha  occ. eigenvalues --   -0.38553  -0.38439  -0.38412  -0.38060  -0.38049
 Alpha  occ. eigenvalues --   -0.37745  -0.37620  -0.37106  -0.36966  -0.36573
 Alpha  occ. eigenvalues --   -0.36507  -0.36118  -0.36087  -0.36008  -0.35856
 Alpha  occ. eigenvalues --   -0.35706  -0.35516  -0.35288  -0.35241  -0.35055
 Alpha  occ. eigenvalues --   -0.34962  -0.34944  -0.34809  -0.34728  -0.34445
 Alpha  occ. eigenvalues --   -0.34286  -0.34079  -0.33953  -0.33702  -0.33692
 Alpha  occ. eigenvalues --   -0.33506  -0.33476  -0.33123  -0.32892  -0.32585
 Alpha  occ. eigenvalues --   -0.32392  -0.32347  -0.32175  -0.32139  -0.31905
 Alpha  occ. eigenvalues --   -0.31848  -0.31590  -0.31469  -0.31310  -0.31233
 Alpha  occ. eigenvalues --   -0.31137  -0.31044  -0.30971  -0.30800  -0.30737
 Alpha  occ. eigenvalues --   -0.30671  -0.30361  -0.30320  -0.30305  -0.30263
 Alpha  occ. eigenvalues --   -0.30122  -0.29964  -0.29814  -0.29758  -0.29752
 Alpha  occ. eigenvalues --   -0.29624  -0.29342  -0.29176  -0.29158  -0.29080
 Alpha  occ. eigenvalues --   -0.29018  -0.28913  -0.28826  -0.28754  -0.28589
 Alpha  occ. eigenvalues --   -0.28410  -0.28334  -0.28207  -0.28122  -0.28093
 Alpha  occ. eigenvalues --   -0.28067  -0.27915  -0.27901  -0.27869  -0.27747
 Alpha  occ. eigenvalues --   -0.27742  -0.27577  -0.27437  -0.27231  -0.27221
 Alpha  occ. eigenvalues --   -0.27199  -0.27105  -0.26919  -0.26907  -0.26785
 Alpha  occ. eigenvalues --   -0.26722  -0.26544  -0.26366  -0.26354  -0.26302
 Alpha  occ. eigenvalues --   -0.26225  -0.26189  -0.26081  -0.26056  -0.26009
 Alpha  occ. eigenvalues --   -0.25944  -0.25859  -0.25793  -0.25771  -0.25707
 Alpha  occ. eigenvalues --   -0.25585  -0.25554  -0.25499  -0.25191  -0.25180
 Alpha  occ. eigenvalues --   -0.25115  -0.25107  -0.24981  -0.24972  -0.24916
 Alpha  occ. eigenvalues --   -0.24867  -0.24786  -0.24657  -0.24628  -0.24479
 Alpha  occ. eigenvalues --   -0.24466  -0.24387  -0.24324  -0.24068  -0.24026
 Alpha virt. eigenvalues --   -0.23938  -0.23934  -0.23824  -0.23520  -0.23280
 Alpha virt. eigenvalues --   -0.23249  -0.22375  -0.20646  -0.20550  -0.19898
 Alpha virt. eigenvalues --   -0.16014  -0.15156  -0.15030  -0.14340  -0.14065

 Mulliken charges:
               1
     1  Pt  -0.107718
     2  Pt  -0.145304
     3  Pt  -0.107718
     4  Pt  -0.037401
     5  Pt  -0.105795
     6  Pt  -0.149110
     7  Pt  -0.145304
     8  Pt  -0.105795
     9  Pt  -0.142570
    10  Pt   0.091215
    11  Pt   0.082289
    12  Pt   0.082289
    13  Pt   0.078074
    14  Pt   0.707432
    15  Pt   0.716117
    16  Pt   0.084881
    17  Pt   0.084737
    18  Pt   0.084737
    19  Pt   0.084654
    20  Pt  -0.145301
    21  Pt  -0.107036
    22  Pt  -0.145740
    23  Pt  -0.107036
    24  Pt  -0.146684
    25  Pt  -0.036634
    26  Pt  -0.107761
    27  Pt  -0.145740
    28  Pt  -0.107761
 Sum of Mulliken charges =   0.00002

 Dipole moment (field-independent basis, Debye):
    X=              0.0810    Y=             -0.1426    Z=             -0.0000  Tot=              0.1640
 Quadrupole moment (field-independent basis, Debye-Ang):
   XX=           -565.0289   YY=           -721.9007   ZZ=           -564.9867
   XY=              0.2493   XZ=              0.0000   YZ=             -0.0000

 Normal termination of Gaussian 09 at Wed Apr 10 14:38:51 2024.
