 Gaussian 09, Revision D.01,
 Gaussian 09:  ES64L-G09RevD.01 24-Apr-2013

 --------------------------------------------
 #p lsda/gen pseudo=read Scf=(conver=5,dsymm)
 --------------------------------------------

 ---------------------
 Al9-Al4-Al-Al-Al4-Al9
 ---------------------
 Symbolic Z-matrix:
 Charge =  0 Multiplicity = 1

                         Standard orientation:
 ---------------------------------------------------------------------
 Center     Atomic      Atomic             Coordinates (Angstroms)
 Number     Number       Type             X           Y           Z
 ---------------------------------------------------------------------
      1         13           0        0.000000    4.000000    6.000000
      2         13           0       -4.000000    0.000000    6.000000
      3         13           0        0.000000    0.000000    6.000000
      4         13           0       -2.000000    2.000000    6.000000
      5         13           0        2.000000    2.000000    6.000000
      6         13           0       -2.000000   -2.000000    6.000000
      7         13           0        4.000000    0.000000    6.000000
      8         13           0        2.000000   -2.000000    6.000000
      9         13           0        0.000000   -4.000000    6.000000
     10         13           0        0.000000    2.000000    4.000000
     11         13           0       -2.000000    0.000000    4.000000
     12         13           0        2.000000    0.000000    4.000000
     13         13           0        0.000000   -2.000000    4.000000
     14         13           0        0.000000    0.000000    2.000000
     15         13           0        0.000000    0.000000   -2.000000
     16         13           0        0.000000    2.000000   -4.000000
     17         13           0       -2.000000    0.000000   -4.000000
     18         13           0        2.000000    0.000000   -4.000000
     19         13           0        0.000000   -2.000000   -4.000000
     20         13           0        0.000000    4.000000   -6.000000
     21         13           0       -2.000000    2.000000   -6.000000
     22         13           0       -4.000000    0.000000   -6.000000
     23         13           0        2.000000    2.000000   -6.000000
     24         13           0       -2.000000   -2.000000   -6.000000
     25         13           0        2.000000   -2.000000   -6.000000
     26         13           0        0.000000    0.000000   -6.000000
     27         13           0        4.000000    0.000000   -6.000000
     28         13           0        0.000000   -4.000000   -6.000000
 ---------------------------------------------------------------------

 SCF Done:  E(RS-VWN) =  -55.0764608761     A.U. after    4 cycles

 The electronic state is 1-A1G.
 Alpha  occ. eigenvalues --   -0.52889  -0.52884  -0.45897  -0.45897  -0.45897
 Alpha  occ. eigenvalues --   -0.45897  -0.42261  -0.42157  -0.39191  -0.39189
 Alpha  occ. eigenvalues --   -0.36594  -0.36594  -0.36391  -0.36327  -0.33528
 Alpha  occ. eigenvalues --   -0.33528  -0.33522  -0.33522  -0.30162  -0.30162
 Alpha  occ. eigenvalues --   -0.30157  -0.30157  -0.29906  -0.29066  -0.24806
 Alpha  occ. eigenvalues --   -0.24802  -0.24434  -0.24434  -0.24402  -0.24402
 Alpha  occ. eigenvalues --   -0.22999  -0.22566  -0.22120  -0.22111  -0.20978
 Alpha  occ. eigenvalues --   -0.20533  -0.20533  -0.20250  -0.20250  -0.20154
 Alpha  occ. eigenvalues --   -0.20096  -0.20096
 Alpha virt. eigenvalues --   -0.18868  -0.17673  -0.17653  -0.16596  -0.16596
 Alpha virt. eigenvalues --   -0.16483  -0.16483  -0.14766  -0.12934  -0.12934
 Alpha virt. eigenvalues --   -0.12893  -0.12893  -0.12610  -0.12610  -0.11274

 Mulliken charges:
               1
     1  Al  -0.051119
     2  Al  -0.051119
     3  Al   0.017884
     4  Al  -0.038446
     5  Al  -0.038446
     6  Al  -0.038446
     7  Al  -0.051119
     8  Al  -0.038446
     9  Al  -0.051119
    10  Al   0.082989
    11  Al   0.082989
    12  Al   0.082989
    13  Al   0.082989
    14  Al   0.008377
    15  Al   0.008377
    16  Al   0.082989
    17  Al   0.082989
    18  Al   0.082989
    19  Al   0.082989
    20  Al  -0.051119
    21  Al  -0.038446
    22  Al  -0.051119
    23  Al  -0.038446
    24  Al  -0.038446
    25  Al  -0.038446
    26  Al   0.017884
    27  Al  -0.051119
    28  Al  -0.051119
 Sum of Mulliken charges =  -0.00009

 Dipole moment (field-independent basis, Debye):
    X=              0.0000    Y=              0.0000    Z=              0.0000  Tot=              0.0000
 Quadrupole moment (field-independent basis, Debye-Ang):
   XX=           -392.6318   YY=           -392.6318   ZZ=           -436.6236
   XY=              0.0000   XZ=              0.0000   YZ=              0.0000

 Normal termination of Gaussian 09 at Thu Feb 28 16:35:47 2019.
