 Gaussian 09, Revision D.01,
 Gaussian 09:  ES64L-G09RevD.01 24-Apr-2013

 ----------------------------------------------------
 #p lsda/gen pseudo=read gfinput Scf=(conver=6,dsymm)
 ----------------------------------------------------

 ---------------------
 Pt9-Pt4-Pt-Pt-Pt4-Pt9
 ---------------------
 Symbolic Z-matrix:
 Charge =  0 Multiplicity = 1

                         Standard orientation:
 ---------------------------------------------------------------------
 Center     Atomic      Atomic             Coordinates (Angstroms)
 Number     Number       Type             X           Y           Z
 ---------------------------------------------------------------------
      1         78           0       -1.960000    1.960000    5.150000
      2         78           0       -3.920000    0.000000    5.150000
      3         78           0        1.960000    1.960000    5.150000
      4         78           0        0.000000    0.000000    5.150000
      5         78           0       -1.960000   -1.960000    5.150000
      6         78           0        0.000000    3.920000    5.150000
      7         78           0        3.920000    0.000000    5.150000
      8         78           0        1.960000   -1.960000    5.150000
      9         78           0        0.000000   -3.920000    5.150000
     10         78           0        0.000000    1.960000    3.190000
     11         78           0       -1.960000    0.000000    3.190000
     12         78           0        1.960000    0.000000    3.190000
     13         78           0        0.000000   -1.960000    3.190000
     14         78           0        0.000000    0.000000    1.230000
     15         78           0        0.000000    0.000000   -1.230000
     16         78           0        0.000000    1.960000   -3.190000
     17         78           0       -1.960000    0.000000   -3.190000
     18         78           0        1.960000    0.000000   -3.190000
     19         78           0        0.000000   -1.960000   -3.190000
     20         78           0        0.000000    3.920000   -5.150000
     21         78           0       -1.960000    1.960000   -5.150000
     22         78           0       -3.920000    0.000000   -5.150000
     23         78           0        1.960000    1.960000   -5.150000
     24         78           0        0.000000   -3.920000   -5.150000
     25         78           0        0.000000    0.000000   -5.150000
     26         78           0       -1.960000   -1.960000   -5.150000
     27         78           0        3.920000    0.000000   -5.150000
     28         78           0        1.960000   -1.960000   -5.150000
 ---------------------------------------------------------------------

 SCF Done:  E(RS-VWN) =  -764.346423166     A.U. after   43 cycles

 The electronic state is 1-A1G.
 Alpha  occ. eigenvalues --   -0.42740  -0.39539  -0.39539  -0.39364  -0.39039
 Alpha  occ. eigenvalues --   -0.39039  -0.38848  -0.38846  -0.38297  -0.38297
 Alpha  occ. eigenvalues --   -0.37839  -0.37745  -0.37745  -0.37704  -0.37614
 Alpha  occ. eigenvalues --   -0.37390  -0.37390  -0.37209  -0.37062  -0.37008
 Alpha  occ. eigenvalues --   -0.36359  -0.36359  -0.36276  -0.36276  -0.35727
 Alpha  occ. eigenvalues --   -0.35393  -0.35142  -0.35142  -0.34992  -0.34831
 Alpha  occ. eigenvalues --   -0.34579  -0.34579  -0.34414  -0.34414  -0.34319
 Alpha  occ. eigenvalues --   -0.34253  -0.33573  -0.33556  -0.33512  -0.33501
 Alpha  occ. eigenvalues --   -0.33501  -0.33460  -0.33017  -0.33017  -0.32895
 Alpha  occ. eigenvalues --   -0.32498  -0.32498  -0.32183  -0.32183  -0.31994
 Alpha  occ. eigenvalues --   -0.31322  -0.31322  -0.31268  -0.31177  -0.30807
 Alpha  occ. eigenvalues --   -0.30807  -0.30684  -0.30684  -0.30514  -0.30437
 Alpha  occ. eigenvalues --   -0.30354  -0.30138  -0.29964  -0.29964  -0.29876
 Alpha  occ. eigenvalues --   -0.29875  -0.29634  -0.29634  -0.29467  -0.29438
 Alpha  occ. eigenvalues --   -0.29209  -0.29209  -0.28959  -0.28832  -0.28832
 Alpha  occ. eigenvalues --   -0.28674  -0.28539  -0.28137  -0.28069  -0.28034
 Alpha  occ. eigenvalues --   -0.28034  -0.27769  -0.27751  -0.27734  -0.27734
 Alpha  occ. eigenvalues --   -0.27578  -0.27459  -0.27459  -0.27414  -0.27400
 Alpha  occ. eigenvalues --   -0.27400  -0.26961  -0.26858  -0.26854  -0.26795
 Alpha  occ. eigenvalues --   -0.26795  -0.26793  -0.26598  -0.26598  -0.26281
 Alpha  occ. eigenvalues --   -0.26280  -0.26089  -0.26089  -0.26073  -0.26073
 Alpha  occ. eigenvalues --   -0.25851  -0.25802  -0.25802  -0.25762  -0.25754
 Alpha  occ. eigenvalues --   -0.25731  -0.25666  -0.25022  -0.25022  -0.24982
 Alpha  occ. eigenvalues --   -0.24810  -0.24687  -0.24665  -0.24665  -0.24643
 Alpha  occ. eigenvalues --   -0.24643  -0.24557  -0.24519  -0.24519  -0.24516
 Alpha  occ. eigenvalues --   -0.24516  -0.24494  -0.24344  -0.24343  -0.24266
 Alpha  occ. eigenvalues --   -0.24186  -0.24103  -0.23875  -0.23824  -0.23697
 Alpha  occ. eigenvalues --   -0.23697  -0.23510  -0.23510  -0.23470  -0.23470
 Alpha virt. eigenvalues --   -0.23441  -0.23441  -0.22944  -0.22827  -0.22827
 Alpha virt. eigenvalues --   -0.22325  -0.22324  -0.20132  -0.19571  -0.19546
 Alpha virt. eigenvalues --   -0.15077  -0.15060  -0.14601  -0.13718  -0.13718

 Mulliken charges:
               1
     1  Pt  -0.092710
     2  Pt  -0.125697
     3  Pt  -0.092710
     4  Pt  -0.261726
     5  Pt  -0.092710
     6  Pt  -0.125697
     7  Pt  -0.125697
     8  Pt  -0.092710
     9  Pt  -0.125697
    10  Pt   0.080196
    11  Pt   0.080196
    12  Pt   0.080196
    13  Pt   0.080196
    14  Pt   0.813975
    15  Pt   0.813975
    16  Pt   0.080196
    17  Pt   0.080196
    18  Pt   0.080196
    19  Pt   0.080196
    20  Pt  -0.125697
    21  Pt  -0.092710
    22  Pt  -0.125697
    23  Pt  -0.092710
    24  Pt  -0.125697
    25  Pt  -0.261726
    26  Pt  -0.092710
    27  Pt  -0.125697
    28  Pt  -0.092710
 Sum of Mulliken charges =  -0.00120

 Dipole moment (field-independent basis, Debye):
    X=              0.0000    Y=              0.0000    Z=              0.0000  Tot=              0.0000
 Quadrupole moment (field-independent basis, Debye-Ang):
   XX=           -671.4216   YY=           -671.4216   ZZ=           -815.9676
   XY=              0.0000   XZ=              0.0000   YZ=              0.0000

 Normal termination of Gaussian 09 at Wed Feb 10 15:15:08 2016.
