 Gaussian 09, Revision D.01,
 Gaussian 09:  ES64L-G09RevD.01 24-Apr-2013

 -----------------------------------------------------------
 #p lsda/gen pseudo=read gfinput Scf=(dsymm,conver=6,nodamp)
 -----------------------------------------------------------

 -------------
 Au4-Au-Au-Au4
 -------------
 Symbolic Z-matrix:
 Charge =  0 Multiplicity = 1

                         Standard orientation:
 ---------------------------------------------------------------------
 Center     Atomic      Atomic             Coordinates (Angstroms)
 Number     Number       Type             X           Y           Z
 ---------------------------------------------------------------------
      1         79           0        0.000000    2.036000    3.376438
      2         79           0       -2.036000    0.000000    3.376438
      3         79           0        0.000000   -2.036000    3.376438
      4         79           0        2.036000    0.000000    3.376438
      5         79           0        0.000000    0.000000    1.397597
      6         79           0        0.000000    0.000000   -1.397597
      7         79           0        0.000000   -2.036000   -3.376438
      8         79           0        2.036000    0.000000   -3.376438
      9         79           0        0.000000    2.036000   -3.376438
     10         79           0       -2.036000    0.000000   -3.376438
 ---------------------------------------------------------------------

 SCF Done:  E(RS-VWN) =  -272.549800297     A.U. after   19 cycles

 The electronic state is 1-A1G.
 Alpha  occ. eigenvalues --   -3.92702  -3.92696  -2.10867  -2.10569  -2.09586
 Alpha  occ. eigenvalues --   -2.09586  -2.09560  -2.09560  -0.25703  -0.22692
 Alpha  occ. eigenvalues --   -0.21735  -0.21485  -0.21485  -0.19618  -0.19274
 Alpha  occ. eigenvalues --   -0.18999  -0.18666  -0.18658  -0.18658  -0.18421
 Alpha  occ. eigenvalues --   -0.10911  -0.08804  -0.08804
 Alpha virt. eigenvalues --   -0.07309  -0.07309  -0.00309   0.03036   0.03175
 Alpha virt. eigenvalues --    0.07737   0.07737   0.11665   0.15408   0.15408
 Alpha virt. eigenvalues --    0.20798   0.20798   0.28271   0.31826   0.31826

 Mulliken charges:
               1
     1  Au  -0.021019
     2  Au  -0.021019
     3  Au  -0.021019
     4  Au  -0.021019
     5  Au   0.084076
     6  Au   0.084076
     7  Au  -0.021019
     8  Au  -0.021019
     9  Au  -0.021019
    10  Au  -0.021019
 Sum of Mulliken charges =   0.00000

 Dipole moment (field-independent basis, Debye):
    X=              0.0000    Y=              0.0000    Z=              0.0000  Tot=              0.0000
 Quadrupole moment (field-independent basis, Debye-Ang):
   XX=            -87.1436   YY=            -87.1436   ZZ=            -45.8250
   XY=              0.0000   XZ=              0.0000   YZ=              0.0000

 Normal termination of Gaussian 09 at Wed Feb 10 15:17:33 2016.
