 Gaussian 09, Revision D.01,
 Gaussian 09:  AS64L-G09RevD.01 24-Apr-2013

 -----------------------------------------------------------
 #p lsda/gen pseudo=read gfinput Scf=(dsymm,conver=6,nodamp)
 -----------------------------------------------------------

 -------------
 Au4-Au-Au-Au4
 -------------
 Symbolic Z-matrix:
 Charge =  0 Multiplicity = 1

                         Standard orientation:
 ---------------------------------------------------------------------
 Center     Atomic      Atomic             Coordinates (Angstroms)
 Number     Number       Type             X           Y           Z
 ---------------------------------------------------------------------
      1         79           0        0.000000    2.036000    3.376438
      2         79           0       -2.036000    0.000000    3.376438
      3         79           0        0.000000   -2.036000    3.376438
      4         79           0        2.036000    0.000000    3.376438
      5         79           0        0.000000    0.000000    1.397597
      6         79           0        0.000000    0.000000   -1.397597
      7         79           0        0.000000   -2.036000   -3.376438
      8         79           0        2.036000    0.000000   -3.376438
      9         79           0        0.000000    2.036000   -3.376438
     10         79           0       -2.036000    0.000000   -3.376438
 ---------------------------------------------------------------------

 SCF Done:  E(RS-VWN) =  -347.701105518     A.U. after   10 cycles

 The electronic state is 1-A1G.
 Alpha  occ. eigenvalues --   -0.42993  -0.41955  -0.41955  -0.41469  -0.41320
 Alpha  occ. eigenvalues --   -0.41284  -0.40958  -0.40958  -0.39727  -0.39567
 Alpha  occ. eigenvalues --   -0.39484  -0.39462  -0.39428  -0.39390  -0.39390
 Alpha  occ. eigenvalues --   -0.39354  -0.39354  -0.39343  -0.39284  -0.39165
 Alpha  occ. eigenvalues --   -0.37588  -0.37588  -0.37537  -0.37501  -0.37501
 Alpha  occ. eigenvalues --   -0.36834  -0.36834  -0.36688  -0.36688  -0.36426
 Alpha  occ. eigenvalues --   -0.36086  -0.36086  -0.36071  -0.36071  -0.36068
 Alpha  occ. eigenvalues --   -0.36029  -0.36023  -0.35843  -0.35843  -0.35230
 Alpha  occ. eigenvalues --   -0.35222  -0.34997  -0.34997  -0.34445  -0.34346
 Alpha  occ. eigenvalues --   -0.34144  -0.34031  -0.34031  -0.33609  -0.33609
 Alpha  occ. eigenvalues --   -0.30092  -0.29467  -0.20526  -0.20526  -0.20004
 Alpha virt. eigenvalues --   -0.19976  -0.19976  -0.12590  -0.12436  -0.11765
 Alpha virt. eigenvalues --   -0.06143  -0.05921  -0.05921  -0.05775  -0.05159
 Alpha virt. eigenvalues --   -0.04942  -0.02576  -0.02576  -0.00669  -0.00669

 Mulliken charges:
               1
     1  Au  -0.084144
     2  Au  -0.084144
     3  Au  -0.084144
     4  Au  -0.084144
     5  Au   0.336576
     6  Au   0.336576
     7  Au  -0.084144
     8  Au  -0.084144
     9  Au  -0.084144
    10  Au  -0.084144
 Sum of Mulliken charges =   0.00000

 Dipole moment (field-independent basis, Debye):
    X=              0.0000    Y=              0.0000    Z=              0.0000  Tot=              0.0000
 Quadrupole moment (field-independent basis, Debye-Ang):
   XX=           -223.5299   YY=           -223.5299   ZZ=           -235.8850
   XY=              0.0000   XZ=              0.0000   YZ=              0.0000

 Normal termination of Gaussian 09 at Fri Jul  8 10:29:19 2022.
