 Gaussian 09, Revision D.01,
 Gaussian 09:  ES64L-G09RevD.01 24-Apr-2013

 -----------------------------------------------------------------
 #p lsda/gen pseudo=read pop=min Scf=(conver=5,maxcycle=100,dsymm)
 -----------------------------------------------------------------

 ---------------------
 Au9-Au4-Au-Au-Au4-Au9
 ---------------------
 Symbolic Z-matrix:
 Charge =  0 Multiplicity = 1

                         Standard orientation:
 ---------------------------------------------------------------------
 Center     Atomic      Atomic             Coordinates (Angstroms)
 Number     Number       Type             X           Y           Z
 ---------------------------------------------------------------------
      1         79           0        0.000000    0.000000    5.500000
      2         79           0       -2.000000    2.000000    5.500000
      3         79           0        2.000000    2.000000    5.500000
      4         79           0       -2.000000   -2.000000    5.500000
      5         79           0        2.000000   -2.000000    5.500000
      6         79           0       -4.000000    0.000000    5.500000
      7         79           0        0.000000    4.000000    5.500000
      8         79           0        4.000000    0.000000    5.500000
      9         79           0        0.000000   -4.000000    5.500000
     10         79           0        0.000000    2.000000    3.500000
     11         79           0       -2.000000    0.000000    3.500000
     12         79           0        0.000000   -2.000000    3.500000
     13         79           0        2.000000    0.000000    3.500000
     14         79           0        0.000000    0.000000    1.500000
     15         79           0        0.000000    0.000000   -1.500000
     16         79           0        0.000000    2.000000   -3.500000
     17         79           0       -2.000000    0.000000   -3.500000
     18         79           0        0.000000   -2.000000   -3.500000
     19         79           0        2.000000    0.000000   -3.500000
     20         79           0        0.000000    0.000000   -5.500000
     21         79           0       -2.000000    2.000000   -5.500000
     22         79           0        2.000000    2.000000   -5.500000
     23         79           0       -2.000000   -2.000000   -5.500000
     24         79           0        2.000000   -2.000000   -5.500000
     25         79           0       -4.000000    0.000000   -5.500000
     26         79           0        0.000000    4.000000   -5.500000
     27         79           0        4.000000    0.000000   -5.500000
     28         79           0        0.000000   -4.000000   -5.500000
 ---------------------------------------------------------------------

 SCF Done:  E(RS-VWN) =  -971.976233649     A.U. after   17 cycles

 The electronic state is 1-A1G.
 Alpha  occ. eigenvalues --   -0.50067  -0.50067  -0.50040  -0.50008  -0.49524
 Alpha  occ. eigenvalues --   -0.49524  -0.49507  -0.49507  -0.48995  -0.48972
 Alpha  occ. eigenvalues --   -0.48919  -0.48857  -0.47985  -0.47962  -0.47956
 Alpha  occ. eigenvalues --   -0.47877  -0.47630  -0.47630  -0.47589  -0.47589
 Alpha  occ. eigenvalues --   -0.47312  -0.47312  -0.47303  -0.47303  -0.46203
 Alpha  occ. eigenvalues --   -0.46203  -0.46078  -0.46077  -0.46005  -0.46003
 Alpha  occ. eigenvalues --   -0.45839  -0.45839  -0.45825  -0.45825  -0.45310
 Alpha  occ. eigenvalues --   -0.45310  -0.45307  -0.45307  -0.44983  -0.44968
 Alpha  occ. eigenvalues --   -0.44837  -0.44834  -0.44488  -0.44223  -0.44223
 Alpha  occ. eigenvalues --   -0.44213  -0.44213  -0.43457  -0.42981  -0.42980
 Alpha  occ. eigenvalues --   -0.42952  -0.42686  -0.42635  -0.42635  -0.42634
 Alpha  occ. eigenvalues --   -0.42634  -0.42062  -0.42059  -0.41828  -0.41828
 Alpha  occ. eigenvalues --   -0.41828  -0.41827  -0.41821  -0.41821  -0.41296
 Alpha  occ. eigenvalues --   -0.41278  -0.40961  -0.40961  -0.40960  -0.40960
 Alpha  occ. eigenvalues --   -0.40860  -0.40860  -0.40496  -0.40477  -0.40179
 Alpha  occ. eigenvalues --   -0.40179  -0.40168  -0.40168  -0.40157  -0.40157
 Alpha  occ. eigenvalues --   -0.39987  -0.39895  -0.39895  -0.39867  -0.39867
 Alpha  occ. eigenvalues --   -0.39731  -0.39686  -0.39686  -0.39649  -0.39649
 Alpha  occ. eigenvalues --   -0.39604  -0.39598  -0.39515  -0.39515  -0.39457
 Alpha  occ. eigenvalues --   -0.39457  -0.39451  -0.39451  -0.38894  -0.38894
 Alpha  occ. eigenvalues --   -0.38894  -0.38894  -0.38894  -0.38849  -0.38849
 Alpha  occ. eigenvalues --   -0.38650  -0.38566  -0.38545  -0.38532  -0.38509
 Alpha  occ. eigenvalues --   -0.38509  -0.38443  -0.38402  -0.38402  -0.38286
 Alpha  occ. eigenvalues --   -0.38286  -0.38284  -0.38284  -0.38175  -0.38168
 Alpha  occ. eigenvalues --   -0.37898  -0.37898  -0.37798  -0.37798  -0.37793
 Alpha  occ. eigenvalues --   -0.37735  -0.37735  -0.37717  -0.37717  -0.37504
 Alpha  occ. eigenvalues --   -0.36278  -0.36175  -0.36175  -0.36083  -0.36000
 Alpha  occ. eigenvalues --   -0.35961  -0.35798  -0.35759  -0.35526  -0.35189
 Alpha  occ. eigenvalues --   -0.35189  -0.35134  -0.31935  -0.31935  -0.31878
 Alpha  occ. eigenvalues --   -0.31878  -0.28310  -0.27410  -0.26293  -0.26283
 Alpha  occ. eigenvalues --   -0.21539  -0.21534  -0.21014  -0.20604
 Alpha virt. eigenvalues --   -0.19148  -0.19148  -0.18824  -0.18824  -0.16512
 Alpha virt. eigenvalues --   -0.16207  -0.16207  -0.16102  -0.16102  -0.12337
 Alpha virt. eigenvalues --   -0.11425  -0.11351  -0.09114  -0.09114  -0.08924

 Mulliken charges:
               1
     1  Au   0.023632
     2  Au  -0.108427
     3  Au  -0.108427
     4  Au  -0.108427
     5  Au  -0.108427
     6  Au  -0.192035
     7  Au  -0.192035
     8  Au  -0.192035
     9  Au  -0.192035
    10  Au   0.155006
    11  Au   0.155006
    12  Au   0.155006
    13  Au   0.155006
    14  Au   0.557714
    15  Au   0.557714
    16  Au   0.155006
    17  Au   0.155006
    18  Au   0.155006
    19  Au   0.155006
    20  Au   0.023632
    21  Au  -0.108427
    22  Au  -0.108427
    23  Au  -0.108427
    24  Au  -0.108427
    25  Au  -0.192035
    26  Au  -0.192035
    27  Au  -0.192035
    28  Au  -0.192035
 Sum of Mulliken charges =  -0.00096

 Dipole moment (field-independent basis, Debye):
    X=              0.0000    Y=              0.0000    Z=              0.0000  Tot=              0.0000
 Quadrupole moment (field-independent basis, Debye-Ang):
   XX=           -638.5078   YY=           -638.5078   ZZ=           -748.8595
   XY=              0.0000   XZ=              0.0000   YZ=              0.0000

 Normal termination of Gaussian 09 at Wed Feb 10 13:45:53 2016.
